<?xml version="1.0" encoding="UTF-8"?>

<!-- generated on 2022-09-18 11:18:18 by Eclipse SUMO GUI Version 1.14.1
<configuration xmlns:xsi="http://www.w3.org/2001/XMLSchema-instance" xsi:noNamespaceSchemaLocation="http://sumo.dlr.de/xsd/sumoConfiguration.xsd">

    <input>
        <net-file value="SUMO_data/cross.net.xml"/>
        <route-files value="SUMO_data/cross.rou.xml"/>
        <additional-files value="SUMO_data/cross.det.xml,SUMO_data/cross.prk.xml"/>
    </input>

    <output>
        <tripinfo-output value="SUMO_data/tripinfo.xml"/>
    </output>

    <time>
        <begin value="0"/>
    </time>

    <report>
        <verbose value="true"/>
        <no-step-log value="true"/>
    </report>

    <traci_server>
        <remote-port value="48605"/>
    </traci_server>

</configuration>
-->

<tripinfos xmlns:xsi="http://www.w3.org/2001/XMLSchema-instance" xsi:noNamespaceSchemaLocation="http://sumo.dlr.de/xsd/tripinfo_file.xsd">
    <tripinfo id="flow_car_9.0" depart="50.00" departLane="54o_0" departPos="5.10" departSpeed="0.00" departDelay="0.00" arrival="137.00" arrivalLane="51i_0" arrivalPos="402.80" arrivalSpeed="16.31" duration="87.00" routeLength="996.73" waitingTime="0.00" waitingCount="0" stopTime="0.00" timeLoss="26.01" rerouteNo="1" devices="tripinfo_flow_car_9.0 routing_flow_car_9.0" vType="car" speedFactor="1.03" vaporized=""/>
    <tripinfo id="flow_car_11.0" depart="54.00" departLane="54o_2" departPos="5.10" departSpeed="0.00" departDelay="0.00" arrival="141.00" arrivalLane="53i_0" arrivalPos="402.80" arrivalSpeed="16.61" duration="87.00" routeLength="1014.90" waitingTime="0.00" waitingCount="0" stopTime="0.00" timeLoss="26.00" rerouteNo="1" devices="tripinfo_flow_car_11.0 routing_flow_car_11.0" vType="car" speedFactor="1.16" vaporized=""/>
    <tripinfo id="flow_car_8.0" depart="54.00" departLane="53o_2" departPos="5.10" departSpeed="0.00" departDelay="0.00" arrival="143.00" arrivalLane="54i_0" arrivalPos="402.80" arrivalSpeed="16.40" duration="89.00" routeLength="1014.90" waitingTime="0.00" waitingCount="0" stopTime="0.00" timeLoss="27.62" rerouteNo="1" devices="tripinfo_flow_car_8.0 routing_flow_car_8.0" vType="car" speedFactor="0.94" vaporized=""/>
    <tripinfo id="flow_car_7.0" depart="52.00" departLane="53o_1" departPos="5.10" departSpeed="0.00" departDelay="0.00" arrival="145.00" arrivalLane="52i_0" arrivalPos="402.80" arrivalSpeed="16.53" duration="93.00" routeLength="996.73" waitingTime="0.00" waitingCount="0" stopTime="0.00" timeLoss="31.58" rerouteNo="1" devices="tripinfo_flow_car_7.0 routing_flow_car_7.0" vType="car" speedFactor="0.99" vaporized=""/>
    <tripinfo id="flow_bus_9.0" depart="56.00" departLane="54o_0" departPos="7.10" departSpeed="0.00" departDelay="1.00" arrival="145.00" arrivalLane="51i_0" arrivalPos="402.80" arrivalSpeed="16.92" duration="89.00" routeLength="994.73" waitingTime="0.00" waitingCount="0" stopTime="0.00" timeLoss="29.75" rerouteNo="1" devices="tripinfo_flow_bus_9.0 routing_flow_bus_9.0" vType="bus" speedFactor="0.89" vaporized=""/>
    <tripinfo id="flow_bus_7.0" depart="58.00" departLane="53o_1" departPos="7.10" departSpeed="0.00" departDelay="0.00" arrival="149.00" arrivalLane="52i_0" arrivalPos="402.80" arrivalSpeed="17.60" duration="91.00" routeLength="994.73" waitingTime="0.00" waitingCount="0" stopTime="0.00" timeLoss="34.44" rerouteNo="1" devices="tripinfo_flow_bus_7.0 routing_flow_bus_7.0" vType="bus" speedFactor="0.92" vaporized=""/>
    <tripinfo id="flow_bus_11.0" depart="61.00" departLane="54o_2" departPos="7.10" departSpeed="0.00" departDelay="0.00" arrival="150.00" arrivalLane="53i_1" arrivalPos="402.80" arrivalSpeed="22.27" duration="89.00" routeLength="1012.90" waitingTime="0.00" waitingCount="0" stopTime="0.00" timeLoss="42.95" rerouteNo="1" devices="tripinfo_flow_bus_11.0 routing_flow_bus_11.0" vType="bus" speedFactor="1.15" vaporized=""/>
    <tripinfo id="flow_bus_8.0" depart="61.00" departLane="53o_2" departPos="7.10" departSpeed="0.00" departDelay="0.00" arrival="153.00" arrivalLane="54i_0" arrivalPos="402.80" arrivalSpeed="22.76" duration="92.00" routeLength="1012.90" waitingTime="0.00" waitingCount="0" stopTime="0.00" timeLoss="47.30" rerouteNo="1" devices="tripinfo_flow_bus_8.0 routing_flow_bus_8.0" vType="bus" speedFactor="1.18" vaporized=""/>
    <tripinfo id="flow_bus_10.0" depart="58.00" departLane="54o_1" departPos="7.10" departSpeed="0.00" departDelay="0.00" arrival="163.00" arrivalLane="52i_1" arrivalPos="402.80" arrivalSpeed="18.26" duration="105.00" routeLength="1010.21" waitingTime="9.00" waitingCount="1" stopTime="0.00" timeLoss="48.76" rerouteNo="1" devices="tripinfo_flow_bus_10.0 routing_flow_bus_10.0" vType="bus" speedFactor="0.95" vaporized=""/>
    <tripinfo id="flow_car_6.0" depart="50.00" departLane="53o_0" departPos="5.10" departSpeed="0.00" departDelay="0.00" arrival="165.00" arrivalLane="51i_0" arrivalPos="402.80" arrivalSpeed="16.39" duration="115.00" routeLength="1012.21" waitingTime="11.00" waitingCount="1" stopTime="0.00" timeLoss="52.61" rerouteNo="1" devices="tripinfo_flow_car_6.0 routing_flow_car_6.0" vType="car" speedFactor="1.09" vaporized=""/>
    <tripinfo id="flow_car_10.0" depart="52.00" departLane="54o_1" departPos="5.10" departSpeed="0.00" departDelay="0.00" arrival="165.00" arrivalLane="52i_0" arrivalPos="402.80" arrivalSpeed="16.44" duration="113.00" routeLength="1012.21" waitingTime="13.00" waitingCount="1" stopTime="0.00" timeLoss="51.11" rerouteNo="1" devices="tripinfo_flow_car_10.0 routing_flow_car_10.0" vType="car" speedFactor="0.93" vaporized=""/>
    <tripinfo id="flow_bus_6.0" depart="56.00" departLane="53o_0" departPos="7.10" departSpeed="0.00" departDelay="1.00" arrival="165.00" arrivalLane="51i_1" arrivalPos="402.80" arrivalSpeed="18.58" duration="109.00" routeLength="1010.21" waitingTime="9.00" waitingCount="1" stopTime="0.00" timeLoss="54.41" rerouteNo="1" devices="tripinfo_flow_bus_6.0 routing_flow_bus_6.0" vType="bus" speedFactor="0.97" vaporized=""/>
    <tripinfo id="flow_car_0.0" depart="50.00" departLane="51o_0" departPos="5.10" departSpeed="0.00" departDelay="0.00" arrival="180.00" arrivalLane="52i_0" arrivalPos="402.80" arrivalSpeed="16.28" duration="130.00" routeLength="1014.90" waitingTime="34.00" waitingCount="1" stopTime="0.00" timeLoss="68.70" rerouteNo="1" devices="tripinfo_flow_car_0.0 routing_flow_car_0.0" vType="car" speedFactor="0.94" vaporized=""/>
    <tripinfo id="flow_bus_0.0" depart="55.00" departLane="51o_0" departPos="7.10" departSpeed="0.00" departDelay="0.00" arrival="181.00" arrivalLane="52i_1" arrivalPos="402.80" arrivalSpeed="19.72" duration="126.00" routeLength="1012.90" waitingTime="28.00" waitingCount="1" stopTime="0.00" timeLoss="73.91" rerouteNo="1" devices="tripinfo_flow_bus_0.0 routing_flow_bus_0.0" vType="bus" speedFactor="1.02" vaporized=""/>
    <tripinfo id="flow_bus_3.0" depart="55.00" departLane="52o_0" departPos="7.10" departSpeed="0.00" departDelay="0.00" arrival="181.00" arrivalLane="51i_1" arrivalPos="402.80" arrivalSpeed="19.50" duration="126.00" routeLength="1012.90" waitingTime="27.00" waitingCount="2" stopTime="0.00" timeLoss="74.27" rerouteNo="1" devices="tripinfo_flow_bus_3.0 routing_flow_bus_3.0" vType="bus" speedFactor="1.01" vaporized=""/>
    <tripinfo id="flow_car_3.0" depart="50.00" departLane="52o_0" departPos="5.10" departSpeed="0.00" departDelay="0.00" arrival="182.00" arrivalLane="51i_0" arrivalPos="402.80" arrivalSpeed="16.35" duration="132.00" routeLength="1014.90" waitingTime="35.00" waitingCount="1" stopTime="0.00" timeLoss="70.98" rerouteNo="1" devices="tripinfo_flow_car_3.0 routing_flow_car_3.0" vType="car" speedFactor="0.86" vaporized=""/>
    <tripinfo id="flow_car_1.0" depart="52.00" departLane="51o_1" departPos="5.10" departSpeed="0.00" departDelay="0.00" arrival="183.00" arrivalLane="53i_0" arrivalPos="402.80" arrivalSpeed="16.55" duration="131.00" routeLength="996.73" waitingTime="33.00" waitingCount="1" stopTime="0.00" timeLoss="69.82" rerouteNo="1" devices="tripinfo_flow_car_1.0 routing_flow_car_1.0" vType="car" speedFactor="1.05" vaporized=""/>
    <tripinfo id="flow_car_5.0" depart="54.00" departLane="52o_2" departPos="5.10" departSpeed="0.00" departDelay="0.00" arrival="185.00" arrivalLane="54i_0" arrivalPos="402.80" arrivalSpeed="16.34" duration="131.00" routeLength="996.73" waitingTime="31.00" waitingCount="1" stopTime="0.00" timeLoss="70.13" rerouteNo="1" devices="tripinfo_flow_car_5.0 routing_flow_car_5.0" vType="car" speedFactor="0.94" vaporized=""/>
    <tripinfo id="flow_bus_5.0" depart="61.00" departLane="52o_2" departPos="7.10" departSpeed="0.00" departDelay="0.00" arrival="185.00" arrivalLane="54i_1" arrivalPos="402.80" arrivalSpeed="18.06" duration="124.00" routeLength="994.73" waitingTime="27.00" waitingCount="1" stopTime="0.00" timeLoss="67.99" rerouteNo="1" devices="tripinfo_flow_bus_5.0 routing_flow_bus_5.0" vType="bus" speedFactor="0.93" vaporized=""/>
    <tripinfo id="flow_car_3.1" depart="100.00" departLane="52o_0" departPos="5.10" departSpeed="0.00" departDelay="0.00" arrival="186.00" arrivalLane="51i_0" arrivalPos="402.80" arrivalSpeed="16.46" duration="86.00" routeLength="1014.90" waitingTime="0.00" waitingCount="0" stopTime="0.00" timeLoss="25.07" rerouteNo="1" devices="tripinfo_flow_car_3.1 routing_flow_car_3.1" vType="car" speedFactor="1.17" vaporized=""/>
    <tripinfo id="flow_car_0.1" depart="100.00" departLane="51o_0" departPos="5.10" departSpeed="0.00" departDelay="0.00" arrival="188.00" arrivalLane="52i_0" arrivalPos="402.80" arrivalSpeed="16.38" duration="88.00" routeLength="1014.90" waitingTime="0.00" waitingCount="0" stopTime="0.00" timeLoss="26.17" rerouteNo="1" devices="tripinfo_flow_car_0.1 routing_flow_car_0.1" vType="car" speedFactor="1.01" vaporized=""/>
    <tripinfo id="flow_bus_1.0" depart="58.00" departLane="51o_1" departPos="7.10" departSpeed="0.00" departDelay="0.00" arrival="189.00" arrivalLane="53i_0" arrivalPos="402.80" arrivalSpeed="15.83" duration="131.00" routeLength="994.73" waitingTime="30.00" waitingCount="1" stopTime="0.00" timeLoss="67.64" rerouteNo="1" devices="tripinfo_flow_bus_1.0 routing_flow_bus_1.0" vType="bus" speedFactor="0.83" vaporized=""/>
    <tripinfo id="flow_car_1.1" depart="102.00" departLane="51o_1" departPos="5.10" departSpeed="0.00" departDelay="0.00" arrival="194.00" arrivalLane="53i_0" arrivalPos="402.80" arrivalSpeed="16.63" duration="92.00" routeLength="996.73" waitingTime="0.00" waitingCount="0" stopTime="0.00" timeLoss="30.96" rerouteNo="1" devices="tripinfo_flow_car_1.1 routing_flow_car_1.1" vType="car" speedFactor="0.97" vaporized=""/>
    <tripinfo id="flow_car_5.1" depart="104.00" departLane="52o_2" departPos="5.10" departSpeed="0.00" departDelay="0.00" arrival="195.00" arrivalLane="54i_0" arrivalPos="402.80" arrivalSpeed="16.31" duration="91.00" routeLength="996.73" waitingTime="0.00" waitingCount="0" stopTime="0.00" timeLoss="29.18" rerouteNo="1" devices="tripinfo_flow_car_5.1 routing_flow_car_5.1" vType="car" speedFactor="0.96" vaporized=""/>
    <tripinfo id="flow_car_4.0" depart="52.00" departLane="52o_1" departPos="5.10" departSpeed="0.00" departDelay="0.00" arrival="200.00" arrivalLane="53i_0" arrivalPos="402.80" arrivalSpeed="16.46" duration="148.00" routeLength="1012.21" waitingTime="43.00" waitingCount="2" stopTime="0.00" timeLoss="86.14" rerouteNo="1" devices="tripinfo_flow_car_4.0 routing_flow_car_4.0" vType="car" speedFactor="1.12" vaporized=""/>
    <tripinfo id="flow_bus_4.0" depart="58.00" departLane="52o_1" departPos="7.10" departSpeed="0.00" departDelay="0.00" arrival="201.00" arrivalLane="53i_1" arrivalPos="402.80" arrivalSpeed="16.72" duration="143.00" routeLength="1010.21" waitingTime="40.00" waitingCount="2" stopTime="0.00" timeLoss="82.27" rerouteNo="1" devices="tripinfo_flow_bus_4.0 routing_flow_bus_4.0" vType="bus" speedFactor="0.87" vaporized=""/>
    <tripinfo id="flow_bus_3.1" depart="120.00" departLane="52o_0" departPos="7.10" departSpeed="0.00" departDelay="0.00" arrival="203.00" arrivalLane="51i_0" arrivalPos="402.80" arrivalSpeed="20.90" duration="83.00" routeLength="1012.90" waitingTime="0.00" waitingCount="0" stopTime="0.00" timeLoss="34.28" rerouteNo="1" devices="tripinfo_flow_bus_3.1 routing_flow_bus_3.1" vType="bus" speedFactor="1.09" vaporized=""/>
    <tripinfo id="flow_car_2.0" depart="54.00" departLane="51o_2" departPos="5.10" departSpeed="0.00" departDelay="0.00" arrival="204.00" arrivalLane="54i_0" arrivalPos="402.80" arrivalSpeed="16.64" duration="150.00" routeLength="1012.21" waitingTime="46.00" waitingCount="2" stopTime="0.00" timeLoss="87.90" rerouteNo="1" devices="tripinfo_flow_car_2.0 routing_flow_car_2.0" vType="car" speedFactor="0.88" vaporized=""/>
    <tripinfo id="flow_car_4.1" depart="102.00" departLane="52o_1" departPos="5.10" departSpeed="0.00" departDelay="0.00" arrival="207.00" arrivalLane="53i_1" arrivalPos="402.80" arrivalSpeed="16.43" duration="105.00" routeLength="1012.21" waitingTime="2.00" waitingCount="1" stopTime="0.00" timeLoss="42.90" rerouteNo="1" devices="tripinfo_flow_car_4.1 routing_flow_car_4.1" vType="car" speedFactor="1.18" vaporized=""/>
    <tripinfo id="flow_bus_0.1" depart="120.00" departLane="51o_0" departPos="7.10" departSpeed="0.00" departDelay="0.00" arrival="207.00" arrivalLane="52i_0" arrivalPos="402.80" arrivalSpeed="20.17" duration="87.00" routeLength="1012.90" waitingTime="0.00" waitingCount="0" stopTime="0.00" timeLoss="36.27" rerouteNo="1" devices="tripinfo_flow_bus_0.1 routing_flow_bus_0.1" vType="bus" speedFactor="1.04" vaporized=""/>
    <tripinfo id="flow_bus_5.1" depart="126.00" departLane="52o_2" departPos="7.10" departSpeed="0.00" departDelay="0.00" arrival="210.00" arrivalLane="54i_0" arrivalPos="402.80" arrivalSpeed="21.21" duration="84.00" routeLength="994.73" waitingTime="0.00" waitingCount="0" stopTime="0.00" timeLoss="36.07" rerouteNo="1" devices="tripinfo_flow_bus_5.1 routing_flow_bus_5.1" vType="bus" speedFactor="1.10" vaporized=""/>
    <tripinfo id="flow_bus_1.1" depart="123.00" departLane="51o_1" departPos="7.10" departSpeed="0.00" departDelay="0.00" arrival="215.00" arrivalLane="53i_0" arrivalPos="402.80" arrivalSpeed="16.79" duration="92.00" routeLength="994.73" waitingTime="0.00" waitingCount="0" stopTime="0.00" timeLoss="32.05" rerouteNo="1" devices="tripinfo_flow_bus_1.1 routing_flow_bus_1.1" vType="bus" speedFactor="0.88" vaporized=""/>
    <tripinfo id="flow_bus_2.0" depart="61.00" departLane="51o_2" departPos="7.10" departSpeed="0.00" departDelay="0.00" arrival="220.00" arrivalLane="54i_1" arrivalPos="402.80" arrivalSpeed="21.93" duration="159.00" routeLength="1010.21" waitingTime="53.00" waitingCount="3" stopTime="0.00" timeLoss="112.11" rerouteNo="1" devices="tripinfo_flow_bus_2.0 routing_flow_bus_2.0" vType="bus" speedFactor="1.13" vaporized=""/>
    <tripinfo id="flow_bus_4.1" depart="123.00" departLane="52o_1" departPos="7.10" departSpeed="0.00" departDelay="0.00" arrival="223.00" arrivalLane="53i_0" arrivalPos="402.80" arrivalSpeed="16.41" duration="100.00" routeLength="1010.21" waitingTime="3.00" waitingCount="1" stopTime="0.00" timeLoss="37.03" rerouteNo="1" devices="tripinfo_flow_bus_4.1 routing_flow_bus_4.1" vType="bus" speedFactor="0.85" vaporized=""/>
    <tripinfo id="flow_car_8.1" depart="104.00" departLane="53o_2" departPos="5.10" departSpeed="0.00" departDelay="0.00" arrival="226.00" arrivalLane="54i_0" arrivalPos="402.80" arrivalSpeed="16.60" duration="122.00" routeLength="1014.90" waitingTime="24.00" waitingCount="1" stopTime="0.00" timeLoss="60.94" rerouteNo="1" devices="tripinfo_flow_car_8.1 routing_flow_car_8.1" vType="car" speedFactor="1.09" vaporized=""/>
    <tripinfo id="flow_car_9.1" depart="100.00" departLane="54o_0" departPos="5.10" departSpeed="0.00" departDelay="0.00" arrival="227.00" arrivalLane="51i_0" arrivalPos="402.80" arrivalSpeed="16.53" duration="127.00" routeLength="996.73" waitingTime="30.00" waitingCount="1" stopTime="0.00" timeLoss="65.48" rerouteNo="1" devices="tripinfo_flow_car_9.1 routing_flow_car_9.1" vType="car" speedFactor="1.02" vaporized=""/>
    <tripinfo id="flow_bus_7.1" depart="123.00" departLane="53o_1" departPos="7.10" departSpeed="0.00" departDelay="0.00" arrival="227.00" arrivalLane="52i_0" arrivalPos="402.80" arrivalSpeed="16.33" duration="104.00" routeLength="994.73" waitingTime="6.00" waitingCount="1" stopTime="0.00" timeLoss="43.22" rerouteNo="1" devices="tripinfo_flow_bus_7.1 routing_flow_bus_7.1" vType="bus" speedFactor="0.85" vaporized=""/>
    <tripinfo id="flow_bus_9.1" depart="120.00" departLane="54o_0" departPos="7.10" departSpeed="0.00" departDelay="0.00" arrival="228.00" arrivalLane="51i_1" arrivalPos="402.80" arrivalSpeed="17.35" duration="108.00" routeLength="994.73" waitingTime="10.00" waitingCount="1" stopTime="0.00" timeLoss="50.08" rerouteNo="1" devices="tripinfo_flow_bus_9.1 routing_flow_bus_9.1" vType="bus" speedFactor="0.90" vaporized=""/>
    <tripinfo id="flow_car_7.1" depart="102.00" departLane="53o_1" departPos="5.10" departSpeed="0.00" departDelay="0.00" arrival="230.00" arrivalLane="52i_0" arrivalPos="402.80" arrivalSpeed="16.65" duration="128.00" routeLength="996.73" waitingTime="28.00" waitingCount="1" stopTime="0.00" timeLoss="66.60" rerouteNo="1" devices="tripinfo_flow_car_7.1 routing_flow_car_7.1" vType="car" speedFactor="1.10" vaporized=""/>
    <tripinfo id="flow_car_11.1" depart="104.00" departLane="54o_2" departPos="5.10" departSpeed="0.00" departDelay="0.00" arrival="230.00" arrivalLane="53i_0" arrivalPos="402.80" arrivalSpeed="16.45" duration="126.00" routeLength="1014.90" waitingTime="25.00" waitingCount="1" stopTime="0.00" timeLoss="64.59" rerouteNo="1" devices="tripinfo_flow_car_11.1 routing_flow_car_11.1" vType="car" speedFactor="1.04" vaporized=""/>
    <tripinfo id="flow_bus_8.1" depart="126.00" departLane="53o_2" departPos="7.10" departSpeed="0.00" departDelay="0.00" arrival="231.00" arrivalLane="54i_1" arrivalPos="402.80" arrivalSpeed="19.43" duration="105.00" routeLength="1012.90" waitingTime="3.00" waitingCount="1" stopTime="0.00" timeLoss="52.50" rerouteNo="1" devices="tripinfo_flow_bus_8.1 routing_flow_bus_8.1" vType="bus" speedFactor="1.00" vaporized=""/>
    <tripinfo id="flow_bus_11.1" depart="126.00" departLane="54o_2" departPos="7.10" departSpeed="0.00" departDelay="0.00" arrival="232.00" arrivalLane="53i_1" arrivalPos="402.80" arrivalSpeed="19.36" duration="106.00" routeLength="1012.90" waitingTime="6.00" waitingCount="1" stopTime="0.00" timeLoss="53.08" rerouteNo="1" devices="tripinfo_flow_bus_11.1 routing_flow_bus_11.1" vType="bus" speedFactor="1.00" vaporized=""/>
    <tripinfo id="flow_car_10.1" depart="102.00" departLane="54o_1" departPos="5.10" departSpeed="0.00" departDelay="0.00" arrival="239.00" arrivalLane="52i_0" arrivalPos="402.80" arrivalSpeed="16.40" duration="137.00" routeLength="1012.21" waitingTime="33.00" waitingCount="2" stopTime="0.00" timeLoss="74.82" rerouteNo="1" devices="tripinfo_flow_car_10.1 routing_flow_car_10.1" vType="car" speedFactor="0.90" vaporized=""/>
    <tripinfo id="flow_car_11.2" depart="154.00" departLane="54o_2" departPos="5.10" departSpeed="0.00" departDelay="0.00" arrival="239.00" arrivalLane="53i_0" arrivalPos="402.80" arrivalSpeed="16.48" duration="85.00" routeLength="1014.90" waitingTime="0.00" waitingCount="0" stopTime="0.00" timeLoss="23.90" rerouteNo="1" devices="tripinfo_flow_car_11.2 routing_flow_car_11.2" vType="car" speedFactor="0.91" vaporized=""/>
    <tripinfo id="flow_car_8.2" depart="154.00" departLane="53o_2" departPos="5.10" departSpeed="0.00" departDelay="0.00" arrival="240.00" arrivalLane="54i_0" arrivalPos="402.80" arrivalSpeed="16.59" duration="86.00" routeLength="1014.90" waitingTime="0.00" waitingCount="0" stopTime="0.00" timeLoss="24.80" rerouteNo="1" devices="tripinfo_flow_car_8.2 routing_flow_car_8.2" vType="car" speedFactor="0.91" vaporized=""/>
    <tripinfo id="flow_car_7.2" depart="152.00" departLane="53o_1" departPos="5.10" departSpeed="0.00" departDelay="0.00" arrival="243.00" arrivalLane="52i_0" arrivalPos="402.80" arrivalSpeed="16.28" duration="91.00" routeLength="996.73" waitingTime="0.00" waitingCount="0" stopTime="0.00" timeLoss="29.60" rerouteNo="1" devices="tripinfo_flow_car_7.2 routing_flow_car_7.2" vType="car" speedFactor="1.02" vaporized=""/>
    <tripinfo id="flow_car_9.2" depart="150.00" departLane="54o_0" departPos="5.10" departSpeed="0.00" departDelay="0.00" arrival="244.00" arrivalLane="51i_0" arrivalPos="402.80" arrivalSpeed="16.46" duration="94.00" routeLength="996.73" waitingTime="0.00" waitingCount="0" stopTime="0.00" timeLoss="32.83" rerouteNo="1" devices="tripinfo_flow_car_9.2 routing_flow_car_9.2" vType="car" speedFactor="0.97" vaporized=""/>
    <tripinfo id="flow_bus_10.1" depart="123.00" departLane="54o_1" departPos="7.10" departSpeed="0.00" departDelay="0.00" arrival="252.00" arrivalLane="52i_1" arrivalPos="402.80" arrivalSpeed="22.39" duration="129.00" routeLength="1010.21" waitingTime="21.00" waitingCount="3" stopTime="0.00" timeLoss="83.34" rerouteNo="1" devices="tripinfo_flow_bus_10.1 routing_flow_bus_10.1" vType="bus" speedFactor="1.17" vaporized=""/>
    <tripinfo id="flow_car_6.1" depart="100.00" departLane="53o_0" departPos="5.10" departSpeed="0.00" departDelay="0.00" arrival="254.00" arrivalLane="51i_0" arrivalPos="402.80" arrivalSpeed="16.63" duration="154.00" routeLength="1012.21" waitingTime="51.00" waitingCount="2" stopTime="0.00" timeLoss="91.85" rerouteNo="1" devices="tripinfo_flow_car_6.1 routing_flow_car_6.1" vType="car" speedFactor="0.99" vaporized=""/>
    <tripinfo id="flow_bus_6.1" depart="120.00" departLane="53o_0" departPos="7.10" departSpeed="0.00" departDelay="0.00" arrival="254.00" arrivalLane="51i_2" arrivalPos="402.80" arrivalSpeed="19.21" duration="134.00" routeLength="1010.21" waitingTime="28.00" waitingCount="2" stopTime="0.00" timeLoss="80.56" rerouteNo="1" devices="tripinfo_flow_bus_6.1 routing_flow_bus_6.1" vType="bus" speedFactor="1.00" vaporized=""/>
    <tripinfo id="flow_car_10.2" depart="152.00" departLane="54o_1" departPos="5.10" departSpeed="0.00" departDelay="0.00" arrival="258.00" arrivalLane="52i_0" arrivalPos="402.80" arrivalSpeed="16.40" duration="106.00" routeLength="1012.21" waitingTime="2.00" waitingCount="1" stopTime="0.00" timeLoss="44.00" rerouteNo="1" devices="tripinfo_flow_car_10.2 routing_flow_car_10.2" vType="car" speedFactor="0.99" vaporized=""/>
    <tripinfo id="flow_car_6.2" depart="150.00" departLane="53o_0" departPos="5.10" departSpeed="0.00" departDelay="0.00" arrival="259.00" arrivalLane="51i_1" arrivalPos="402.80" arrivalSpeed="16.48" duration="109.00" routeLength="1012.21" waitingTime="7.00" waitingCount="1" stopTime="0.00" timeLoss="47.32" rerouteNo="1" devices="tripinfo_flow_car_6.2 routing_flow_car_6.2" vType="car" speedFactor="1.02" vaporized=""/>
    <tripinfo id="flow_bus_0.2" depart="185.00" departLane="51o_0" departPos="7.10" departSpeed="0.00" departDelay="0.00" arrival="271.00" arrivalLane="52i_0" arrivalPos="402.80" arrivalSpeed="20.06" duration="86.00" routeLength="1012.90" waitingTime="0.00" waitingCount="0" stopTime="0.00" timeLoss="35.18" rerouteNo="1" devices="tripinfo_flow_bus_0.2 routing_flow_bus_0.2" vType="bus" speedFactor="1.04" vaporized=""/>
    <tripinfo id="flow_bus_6.2" depart="185.00" departLane="53o_0" departPos="7.10" departSpeed="0.00" departDelay="0.00" arrival="271.00" arrivalLane="51i_2" arrivalPos="402.80" arrivalSpeed="19.85" duration="86.00" routeLength="1005.18" waitingTime="0.00" waitingCount="0" stopTime="0.00" timeLoss="32.83" rerouteNo="1" devices="tripinfo_flow_bus_6.2 routing_flow_bus_6.2" vType="bus" speedFactor="1.02" vaporized=""/>
    <tripinfo id="flow_car_0.2" depart="150.00" departLane="51o_0" departPos="5.10" departSpeed="0.00" departDelay="0.00" arrival="275.00" arrivalLane="52i_0" arrivalPos="402.80" arrivalSpeed="16.40" duration="125.00" routeLength="1014.90" waitingTime="25.00" waitingCount="1" stopTime="0.00" timeLoss="63.34" rerouteNo="1" devices="tripinfo_flow_car_0.2 routing_flow_car_0.2" vType="car" speedFactor="0.90" vaporized=""/>
    <tripinfo id="flow_car_5.2" depart="154.00" departLane="52o_2" departPos="5.10" departSpeed="0.00" departDelay="0.00" arrival="275.00" arrivalLane="54i_0" arrivalPos="402.80" arrivalSpeed="16.43" duration="121.00" routeLength="996.73" waitingTime="21.00" waitingCount="1" stopTime="0.00" timeLoss="59.40" rerouteNo="1" devices="tripinfo_flow_car_5.2 routing_flow_car_5.2" vType="car" speedFactor="0.88" vaporized=""/>
    <tripinfo id="flow_bus_3.2" depart="185.00" departLane="52o_0" departPos="7.10" departSpeed="0.00" departDelay="0.00" arrival="276.00" arrivalLane="51i_0" arrivalPos="402.80" arrivalSpeed="19.53" duration="91.00" routeLength="1012.90" waitingTime="0.00" waitingCount="0" stopTime="0.00" timeLoss="39.91" rerouteNo="1" devices="tripinfo_flow_bus_3.2 routing_flow_bus_3.2" vType="bus" speedFactor="1.02" vaporized=""/>
    <tripinfo id="flow_bus_1.2" depart="188.00" departLane="51o_1" departPos="7.10" departSpeed="0.00" departDelay="0.00" arrival="279.00" arrivalLane="53i_0" arrivalPos="402.80" arrivalSpeed="18.09" duration="91.00" routeLength="989.15" waitingTime="0.00" waitingCount="0" stopTime="0.00" timeLoss="33.05" rerouteNo="1" devices="tripinfo_flow_bus_1.2 routing_flow_bus_1.2" vType="bus" speedFactor="0.94" vaporized=""/>
    <tripinfo id="flow_bus_5.2" depart="191.00" departLane="52o_2" departPos="7.10" departSpeed="0.00" departDelay="0.00" arrival="280.00" arrivalLane="54i_0" arrivalPos="402.80" arrivalSpeed="18.99" duration="89.00" routeLength="989.15" waitingTime="0.00" waitingCount="0" stopTime="0.00" timeLoss="34.26" rerouteNo="1" devices="tripinfo_flow_bus_5.2 routing_flow_bus_5.2" vType="bus" speedFactor="0.98" vaporized=""/>
    <tripinfo id="flow_car_3.2" depart="150.00" departLane="52o_0" departPos="5.10" departSpeed="0.00" departDelay="0.00" arrival="281.00" arrivalLane="51i_0" arrivalPos="402.80" arrivalSpeed="16.61" duration="131.00" routeLength="1014.90" waitingTime="21.00" waitingCount="1" stopTime="0.00" timeLoss="69.58" rerouteNo="1" devices="tripinfo_flow_car_3.2 routing_flow_car_3.2" vType="car" speedFactor="1.14" vaporized=""/>
    <tripinfo id="flow_car_2.1" depart="104.00" departLane="51o_2" departPos="5.10" departSpeed="0.00" departDelay="0.00" arrival="284.00" arrivalLane="54i_1" arrivalPos="402.80" arrivalSpeed="16.54" duration="180.00" routeLength="1012.21" waitingTime="68.00" waitingCount="4" stopTime="0.00" timeLoss="117.94" rerouteNo="1" devices="tripinfo_flow_car_2.1 routing_flow_car_2.1" vType="car" speedFactor="1.03" vaporized=""/>
    <tripinfo id="flow_car_3.3" depart="200.00" departLane="52o_0" departPos="5.10" departSpeed="0.00" departDelay="0.00" arrival="287.00" arrivalLane="51i_0" arrivalPos="402.80" arrivalSpeed="16.54" duration="87.00" routeLength="1014.90" waitingTime="0.00" waitingCount="0" stopTime="0.00" timeLoss="25.78" rerouteNo="1" devices="tripinfo_flow_car_3.3 routing_flow_car_3.3" vType="car" speedFactor="1.00" vaporized=""/>
    <tripinfo id="flow_car_1.2" depart="152.00" departLane="51o_1" departPos="5.10" departSpeed="0.00" departDelay="0.00" arrival="289.00" arrivalLane="53i_0" arrivalPos="402.80" arrivalSpeed="16.45" duration="137.00" routeLength="996.73" waitingTime="25.00" waitingCount="2" stopTime="0.00" timeLoss="75.96" rerouteNo="1" devices="tripinfo_flow_car_1.2 routing_flow_car_1.2" vType="car" speedFactor="1.08" vaporized=""/>
    <tripinfo id="flow_car_4.2" depart="152.00" departLane="52o_1" departPos="5.10" departSpeed="0.00" departDelay="0.00" arrival="290.00" arrivalLane="53i_0" arrivalPos="402.80" arrivalSpeed="16.48" duration="138.00" routeLength="1012.21" waitingTime="28.00" waitingCount="2" stopTime="0.00" timeLoss="76.58" rerouteNo="1" devices="tripinfo_flow_car_4.2 routing_flow_car_4.2" vType="car" speedFactor="1.12" vaporized=""/>
    <tripinfo id="flow_car_0.3" depart="200.00" departLane="51o_0" departPos="5.10" departSpeed="0.00" departDelay="0.00" arrival="290.00" arrivalLane="52i_0" arrivalPos="402.80" arrivalSpeed="16.48" duration="90.00" routeLength="1014.90" waitingTime="0.00" waitingCount="0" stopTime="0.00" timeLoss="28.34" rerouteNo="1" devices="tripinfo_flow_car_0.3 routing_flow_car_0.3" vType="car" speedFactor="1.03" vaporized=""/>
    <tripinfo id="flow_car_5.3" depart="204.00" departLane="52o_2" departPos="5.10" departSpeed="0.00" departDelay="0.00" arrival="293.00" arrivalLane="54i_0" arrivalPos="402.80" arrivalSpeed="16.55" duration="89.00" routeLength="996.73" waitingTime="0.00" waitingCount="0" stopTime="0.00" timeLoss="28.32" rerouteNo="1" devices="tripinfo_flow_car_5.3 routing_flow_car_5.3" vType="car" speedFactor="1.02" vaporized=""/>
    <tripinfo id="flow_car_1.3" depart="202.00" departLane="51o_1" departPos="5.10" departSpeed="0.00" departDelay="0.00" arrival="296.00" arrivalLane="53i_0" arrivalPos="402.80" arrivalSpeed="16.43" duration="94.00" routeLength="991.15" waitingTime="0.00" waitingCount="0" stopTime="0.00" timeLoss="32.20" rerouteNo="1" devices="tripinfo_flow_car_1.3 routing_flow_car_1.3" vType="car" speedFactor="1.15" vaporized=""/>
    <tripinfo id="flow_bus_2.1" depart="126.00" departLane="51o_2" departPos="7.10" departSpeed="0.00" departDelay="0.00" arrival="297.00" arrivalLane="54i_1" arrivalPos="402.80" arrivalSpeed="19.56" duration="171.00" routeLength="1010.21" waitingTime="60.00" waitingCount="4" stopTime="0.00" timeLoss="118.46" rerouteNo="1" devices="tripinfo_flow_bus_2.1 routing_flow_bus_2.1" vType="bus" speedFactor="1.02" vaporized=""/>