<?xml version="1.0" encoding="UTF-8"?>

<!-- generated on 2022-09-16 09:35:52 by Eclipse SUMO GUI Version 1.14.1
<configuration xmlns:xsi="http://www.w3.org/2001/XMLSchema-instance" xsi:noNamespaceSchemaLocation="http://sumo.dlr.de/xsd/sumoConfiguration.xsd">

    <input>
        <net-file value="SUMO_data/cross.net.xml"/>
        <route-files value="SUMO_data/cross.rou.xml"/>
        <additional-files value="SUMO_data/cross.det.xml,SUMO_data/cross.prk.xml"/>
    </input>

    <output>
        <tripinfo-output value="SUMO_data/tripinfo.xml"/>
    </output>

    <time>
        <begin value="0"/>
    </time>

    <report>
        <verbose value="true"/>
        <no-step-log value="true"/>
    </report>

    <traci_server>
        <remote-port value="38621"/>
    </traci_server>

</configuration>
-->

<tripinfos xmlns:xsi="http://www.w3.org/2001/XMLSchema-instance" xsi:noNamespaceSchemaLocation="http://sumo.dlr.de/xsd/tripinfo_file.xsd">
    <tripinfo id="flow_car_9.0" depart="50.00" departLane="54o_0" departPos="5.10" departSpeed="0.00" departDelay="0.00" arrival="140.00" arrivalLane="51i_0" arrivalPos="402.80" arrivalSpeed="16.60" duration="90.00" routeLength="996.73" waitingTime="0.00" waitingCount="0" stopTime="0.00" timeLoss="28.46" rerouteNo="1" devices="tripinfo_flow_car_9.0 routing_flow_car_9.0" vType="car" speedFactor="1.03" vaporized=""/>
    <tripinfo id="flow_car_7.0" depart="52.00" departLane="53o_1" departPos="5.10" departSpeed="0.00" departDelay="0.00" arrival="142.00" arrivalLane="52i_0" arrivalPos="402.80" arrivalSpeed="16.52" duration="90.00" routeLength="996.73" waitingTime="0.00" waitingCount="0" stopTime="0.00" timeLoss="28.62" rerouteNo="1" devices="tripinfo_flow_car_7.0 routing_flow_car_7.0" vType="car" speedFactor="0.99" vaporized=""/>
    <tripinfo id="flow_car_8.0" depart="54.00" departLane="53o_2" departPos="5.10" departSpeed="0.00" departDelay="0.00" arrival="142.00" arrivalLane="54i_0" arrivalPos="402.80" arrivalSpeed="16.44" duration="88.00" routeLength="1014.90" waitingTime="0.00" waitingCount="0" stopTime="0.00" timeLoss="26.54" rerouteNo="1" devices="tripinfo_flow_car_8.0 routing_flow_car_8.0" vType="car" speedFactor="0.94" vaporized=""/>
    <tripinfo id="flow_car_11.0" depart="54.00" departLane="54o_2" departPos="5.10" departSpeed="0.00" departDelay="0.00" arrival="142.00" arrivalLane="53i_0" arrivalPos="402.80" arrivalSpeed="16.46" duration="88.00" routeLength="1014.90" waitingTime="0.00" waitingCount="0" stopTime="0.00" timeLoss="26.91" rerouteNo="1" devices="tripinfo_flow_car_11.0 routing_flow_car_11.0" vType="car" speedFactor="1.16" vaporized=""/>
    <tripinfo id="flow_bus_9.0" depart="56.00" departLane="54o_0" departPos="7.10" departSpeed="0.00" departDelay="1.00" arrival="146.00" arrivalLane="51i_0" arrivalPos="402.80" arrivalSpeed="17.21" duration="90.00" routeLength="994.73" waitingTime="0.00" waitingCount="0" stopTime="0.00" timeLoss="31.35" rerouteNo="1" devices="tripinfo_flow_bus_9.0 routing_flow_bus_9.0" vType="bus" speedFactor="0.89" vaporized=""/>
    <tripinfo id="flow_bus_7.0" depart="58.00" departLane="53o_1" departPos="7.10" departSpeed="0.00" departDelay="0.00" arrival="148.00" arrivalLane="52i_0" arrivalPos="402.80" arrivalSpeed="17.63" duration="90.00" routeLength="994.73" waitingTime="0.00" waitingCount="0" stopTime="0.00" timeLoss="32.84" rerouteNo="1" devices="tripinfo_flow_bus_7.0 routing_flow_bus_7.0" vType="bus" speedFactor="0.92" vaporized=""/>
    <tripinfo id="flow_bus_8.0" depart="61.00" departLane="53o_2" departPos="7.10" departSpeed="0.00" departDelay="0.00" arrival="157.00" arrivalLane="54i_0" arrivalPos="402.80" arrivalSpeed="22.31" duration="96.00" routeLength="1012.90" waitingTime="0.00" waitingCount="0" stopTime="0.00" timeLoss="51.27" rerouteNo="1" devices="tripinfo_flow_bus_8.0 routing_flow_bus_8.0" vType="bus" speedFactor="1.18" vaporized=""/>
    <tripinfo id="flow_bus_11.0" depart="61.00" departLane="54o_2" departPos="7.10" departSpeed="0.00" departDelay="0.00" arrival="157.00" arrivalLane="53i_0" arrivalPos="402.80" arrivalSpeed="22.26" duration="96.00" routeLength="1012.90" waitingTime="0.00" waitingCount="0" stopTime="0.00" timeLoss="50.03" rerouteNo="1" devices="tripinfo_flow_bus_11.0 routing_flow_bus_11.0" vType="bus" speedFactor="1.15" vaporized=""/>
    <tripinfo id="flow_car_6.0" depart="50.00" departLane="53o_0" departPos="5.10" departSpeed="0.00" departDelay="0.00" arrival="167.00" arrivalLane="51i_0" arrivalPos="402.80" arrivalSpeed="16.35" duration="117.00" routeLength="1012.21" waitingTime="14.00" waitingCount="1" stopTime="0.00" timeLoss="54.66" rerouteNo="1" devices="tripinfo_flow_car_6.0 routing_flow_car_6.0" vType="car" speedFactor="1.09" vaporized=""/>
    <tripinfo id="flow_car_10.0" depart="52.00" departLane="54o_1" departPos="5.10" departSpeed="0.00" departDelay="0.00" arrival="167.00" arrivalLane="52i_0" arrivalPos="402.80" arrivalSpeed="16.46" duration="115.00" routeLength="1012.21" waitingTime="13.00" waitingCount="1" stopTime="0.00" timeLoss="52.68" rerouteNo="1" devices="tripinfo_flow_car_10.0 routing_flow_car_10.0" vType="car" speedFactor="0.93" vaporized=""/>
    <tripinfo id="flow_bus_6.0" depart="56.00" departLane="53o_0" departPos="7.10" departSpeed="0.00" departDelay="1.00" arrival="168.00" arrivalLane="51i_1" arrivalPos="402.80" arrivalSpeed="18.70" duration="112.00" routeLength="1010.21" waitingTime="13.00" waitingCount="1" stopTime="0.00" timeLoss="56.93" rerouteNo="1" devices="tripinfo_flow_bus_6.0 routing_flow_bus_6.0" vType="bus" speedFactor="0.97" vaporized=""/>
    <tripinfo id="flow_bus_10.0" depart="58.00" departLane="54o_1" departPos="7.10" departSpeed="0.00" departDelay="0.00" arrival="168.00" arrivalLane="52i_1" arrivalPos="402.80" arrivalSpeed="18.09" duration="110.00" routeLength="1010.21" waitingTime="12.00" waitingCount="1" stopTime="0.00" timeLoss="53.41" rerouteNo="1" devices="tripinfo_flow_bus_10.0 routing_flow_bus_10.0" vType="bus" speedFactor="0.95" vaporized=""/>
    <tripinfo id="flow_bus_3.0" depart="56.00" departLane="52o_0" departPos="7.10" departSpeed="0.00" departDelay="1.00" arrival="180.00" arrivalLane="51i_0" arrivalPos="402.80" arrivalSpeed="19.54" duration="124.00" routeLength="1012.90" waitingTime="29.00" waitingCount="1" stopTime="0.00" timeLoss="71.55" rerouteNo="1" devices="tripinfo_flow_bus_3.0 routing_flow_bus_3.0" vType="bus" speedFactor="1.01" vaporized=""/>
    <tripinfo id="flow_car_1.0" depart="52.00" departLane="51o_1" departPos="5.10" departSpeed="0.00" departDelay="0.00" arrival="183.00" arrivalLane="53i_0" arrivalPos="402.80" arrivalSpeed="16.39" duration="131.00" routeLength="996.73" waitingTime="32.00" waitingCount="1" stopTime="0.00" timeLoss="70.02" rerouteNo="1" devices="tripinfo_flow_car_1.0 routing_flow_car_1.0" vType="car" speedFactor="1.05" vaporized=""/>
    <tripinfo id="flow_car_0.0" depart="50.00" departLane="51o_0" departPos="5.10" departSpeed="0.00" departDelay="0.00" arrival="185.00" arrivalLane="52i_0" arrivalPos="402.80" arrivalSpeed="16.34" duration="135.00" routeLength="1014.90" waitingTime="32.00" waitingCount="1" stopTime="0.00" timeLoss="73.46" rerouteNo="1" devices="tripinfo_flow_car_0.0 routing_flow_car_0.0" vType="car" speedFactor="0.94" vaporized=""/>
    <tripinfo id="flow_car_3.0" depart="50.00" departLane="52o_0" departPos="5.10" departSpeed="0.00" departDelay="0.00" arrival="185.00" arrivalLane="51i_0" arrivalPos="402.80" arrivalSpeed="16.57" duration="135.00" routeLength="1014.90" waitingTime="36.00" waitingCount="1" stopTime="0.00" timeLoss="73.37" rerouteNo="1" devices="tripinfo_flow_car_3.0 routing_flow_car_3.0" vType="car" speedFactor="0.86" vaporized=""/>
    <tripinfo id="flow_bus_0.0" depart="56.00" departLane="51o_0" departPos="7.10" departSpeed="0.00" departDelay="1.00" arrival="185.00" arrivalLane="52i_1" arrivalPos="402.80" arrivalSpeed="19.58" duration="129.00" routeLength="1012.90" waitingTime="28.00" waitingCount="1" stopTime="0.00" timeLoss="77.31" rerouteNo="1" devices="tripinfo_flow_bus_0.0 routing_flow_bus_0.0" vType="bus" speedFactor="1.02" vaporized=""/>
    <tripinfo id="flow_car_5.0" depart="54.00" departLane="52o_2" departPos="5.10" departSpeed="0.00" departDelay="0.00" arrival="187.00" arrivalLane="54i_0" arrivalPos="402.80" arrivalSpeed="16.45" duration="133.00" routeLength="996.73" waitingTime="29.00" waitingCount="1" stopTime="0.00" timeLoss="71.66" rerouteNo="1" devices="tripinfo_flow_car_5.0 routing_flow_car_5.0" vType="car" speedFactor="0.94" vaporized=""/>
    <tripinfo id="flow_bus_5.0" depart="61.00" departLane="52o_2" departPos="7.10" departSpeed="0.00" departDelay="0.00" arrival="187.00" arrivalLane="54i_1" arrivalPos="402.80" arrivalSpeed="17.97" duration="126.00" routeLength="994.73" waitingTime="25.00" waitingCount="1" stopTime="0.00" timeLoss="69.51" rerouteNo="1" devices="tripinfo_flow_bus_5.0 routing_flow_bus_5.0" vType="bus" speedFactor="0.93" vaporized=""/>
    <tripinfo id="flow_car_3.1" depart="100.00" departLane="52o_0" departPos="5.10" departSpeed="0.00" departDelay="0.00" arrival="187.00" arrivalLane="51i_0" arrivalPos="402.80" arrivalSpeed="16.62" duration="87.00" routeLength="1014.90" waitingTime="0.00" waitingCount="0" stopTime="0.00" timeLoss="25.18" rerouteNo="1" devices="tripinfo_flow_car_3.1 routing_flow_car_3.1" vType="car" speedFactor="1.17" vaporized=""/>
    <tripinfo id="flow_bus_1.0" depart="58.00" departLane="51o_1" departPos="7.10" departSpeed="0.00" departDelay="0.00" arrival="188.00" arrivalLane="53i_0" arrivalPos="402.80" arrivalSpeed="15.83" duration="130.00" routeLength="994.73" waitingTime="27.00" waitingCount="1" stopTime="0.00" timeLoss="66.78" rerouteNo="1" devices="tripinfo_flow_bus_1.0 routing_flow_bus_1.0" vType="bus" speedFactor="0.83" vaporized=""/>
    <tripinfo id="flow_car_0.1" depart="100.00" departLane="51o_0" departPos="5.10" departSpeed="0.00" departDelay="0.00" arrival="189.00" arrivalLane="52i_2" arrivalPos="402.80" arrivalSpeed="16.37" duration="89.00" routeLength="1014.90" waitingTime="0.00" waitingCount="0" stopTime="0.00" timeLoss="27.41" rerouteNo="1" devices="tripinfo_flow_car_0.1 routing_flow_car_0.1" vType="car" speedFactor="1.01" vaporized=""/>
    <tripinfo id="flow_car_1.1" depart="102.00" departLane="51o_1" departPos="5.10" departSpeed="0.00" departDelay="0.00" arrival="194.00" arrivalLane="53i_0" arrivalPos="402.80" arrivalSpeed="16.54" duration="92.00" routeLength="996.73" waitingTime="0.00" waitingCount="0" stopTime="0.00" timeLoss="30.34" rerouteNo="1" devices="tripinfo_flow_car_1.1 routing_flow_car_1.1" vType="car" speedFactor="0.97" vaporized=""/>
    <tripinfo id="flow_car_5.1" depart="104.00" departLane="52o_2" departPos="5.10" departSpeed="0.00" departDelay="0.00" arrival="198.00" arrivalLane="54i_0" arrivalPos="402.80" arrivalSpeed="16.34" duration="94.00" routeLength="996.73" waitingTime="0.00" waitingCount="0" stopTime="0.00" timeLoss="32.56" rerouteNo="1" devices="tripinfo_flow_car_5.1 routing_flow_car_5.1" vType="car" speedFactor="0.96" vaporized=""/>
    <tripinfo id="flow_car_4.0" depart="52.00" departLane="52o_1" departPos="5.10" departSpeed="0.00" departDelay="0.00" arrival="199.00" arrivalLane="53i_0" arrivalPos="402.80" arrivalSpeed="16.64" duration="147.00" routeLength="1012.21" waitingTime="43.00" waitingCount="2" stopTime="0.00" timeLoss="85.30" rerouteNo="1" devices="tripinfo_flow_car_4.0 routing_flow_car_4.0" vType="car" speedFactor="1.12" vaporized=""/>
    <tripinfo id="flow_bus_0.1" depart="120.00" departLane="51o_0" departPos="7.10" departSpeed="0.00" departDelay="0.00" arrival="201.00" arrivalLane="52i_0" arrivalPos="402.80" arrivalSpeed="20.17" duration="81.00" routeLength="1012.90" waitingTime="0.00" waitingCount="0" stopTime="0.00" timeLoss="30.87" rerouteNo="1" devices="tripinfo_flow_bus_0.1 routing_flow_bus_0.1" vType="bus" speedFactor="1.04" vaporized=""/>
    <tripinfo id="flow_car_2.0" depart="54.00" departLane="51o_2" departPos="5.10" departSpeed="0.00" departDelay="0.00" arrival="203.00" arrivalLane="54i_0" arrivalPos="402.80" arrivalSpeed="16.52" duration="149.00" routeLength="1012.21" waitingTime="46.00" waitingCount="2" stopTime="0.00" timeLoss="86.50" rerouteNo="1" devices="tripinfo_flow_car_2.0 routing_flow_car_2.0" vType="car" speedFactor="0.88" vaporized=""/>
    <tripinfo id="flow_bus_3.1" depart="120.00" departLane="52o_0" departPos="7.10" departSpeed="0.00" departDelay="0.00" arrival="206.00" arrivalLane="51i_0" arrivalPos="402.80" arrivalSpeed="21.02" duration="86.00" routeLength="1012.90" waitingTime="0.00" waitingCount="0" stopTime="0.00" timeLoss="38.05" rerouteNo="1" devices="tripinfo_flow_bus_3.1 routing_flow_bus_3.1" vType="bus" speedFactor="1.09" vaporized=""/>
    <tripinfo id="flow_bus_1.1" depart="123.00" departLane="51o_1" departPos="7.10" departSpeed="0.00" departDelay="0.00" arrival="213.00" arrivalLane="53i_0" arrivalPos="402.80" arrivalSpeed="16.67" duration="90.00" routeLength="994.73" waitingTime="0.00" waitingCount="0" stopTime="0.00" timeLoss="30.35" rerouteNo="1" devices="tripinfo_flow_bus_1.1 routing_flow_bus_1.1" vType="bus" speedFactor="0.88" vaporized=""/>
    <tripinfo id="flow_bus_4.0" depart="58.00" departLane="52o_1" departPos="7.10" departSpeed="0.00" departDelay="0.00" arrival="220.00" arrivalLane="53i_0" arrivalPos="402.80" arrivalSpeed="16.95" duration="162.00" routeLength="1010.21" waitingTime="53.00" waitingCount="3" stopTime="0.00" timeLoss="100.57" rerouteNo="1" devices="tripinfo_flow_bus_4.0 routing_flow_bus_4.0" vType="bus" speedFactor="0.87" vaporized=""/>
    <tripinfo id="flow_bus_2.0" depart="61.00" departLane="51o_2" departPos="7.10" departSpeed="0.00" departDelay="0.00" arrival="220.00" arrivalLane="54i_1" arrivalPos="402.80" arrivalSpeed="21.87" duration="159.00" routeLength="1010.21" waitingTime="56.00" waitingCount="3" stopTime="0.00" timeLoss="111.42" rerouteNo="1" devices="tripinfo_flow_bus_2.0 routing_flow_bus_2.0" vType="bus" speedFactor="1.13" vaporized=""/>
    <tripinfo id="flow_car_7.1" depart="102.00" departLane="53o_1" departPos="5.10" departSpeed="0.00" departDelay="0.00" arrival="226.00" arrivalLane="52i_0" arrivalPos="402.80" arrivalSpeed="16.44" duration="124.00" routeLength="996.73" waitingTime="24.00" waitingCount="1" stopTime="0.00" timeLoss="63.37" rerouteNo="1" devices="tripinfo_flow_car_7.1 routing_flow_car_7.1" vType="car" speedFactor="1.10" vaporized=""/>
    <tripinfo id="flow_car_9.1" depart="100.00" departLane="54o_0" departPos="5.10" departSpeed="0.00" departDelay="0.00" arrival="227.00" arrivalLane="51i_0" arrivalPos="402.80" arrivalSpeed="16.42" duration="127.00" routeLength="996.73" waitingTime="29.00" waitingCount="1" stopTime="0.00" timeLoss="66.18" rerouteNo="1" devices="tripinfo_flow_car_9.1 routing_flow_car_9.1" vType="car" speedFactor="1.02" vaporized=""/>
    <tripinfo id="flow_bus_7.1" depart="123.00" departLane="53o_1" departPos="7.10" departSpeed="0.00" departDelay="0.00" arrival="227.00" arrivalLane="52i_1" arrivalPos="402.80" arrivalSpeed="16.38" duration="104.00" routeLength="994.73" waitingTime="7.00" waitingCount="1" stopTime="0.00" timeLoss="43.06" rerouteNo="1" devices="tripinfo_flow_bus_7.1 routing_flow_bus_7.1" vType="bus" speedFactor="0.85" vaporized=""/>
    <tripinfo id="flow_car_8.1" depart="104.00" departLane="53o_2" departPos="5.10" departSpeed="0.00" departDelay="0.00" arrival="228.00" arrivalLane="54i_0" arrivalPos="402.80" arrivalSpeed="16.57" duration="124.00" routeLength="1014.90" waitingTime="24.00" waitingCount="1" stopTime="0.00" timeLoss="62.94" rerouteNo="1" devices="tripinfo_flow_car_8.1 routing_flow_car_8.1" vType="car" speedFactor="1.09" vaporized=""/>
    <tripinfo id="flow_bus_9.1" depart="120.00" departLane="54o_0" departPos="7.10" departSpeed="0.00" departDelay="0.00" arrival="228.00" arrivalLane="51i_1" arrivalPos="402.80" arrivalSpeed="17.24" duration="108.00" routeLength="994.73" waitingTime="10.00" waitingCount="1" stopTime="0.00" timeLoss="49.20" rerouteNo="1" devices="tripinfo_flow_bus_9.1 routing_flow_bus_9.1" vType="bus" speedFactor="0.90" vaporized=""/>
    <tripinfo id="flow_bus_11.1" depart="126.00" departLane="54o_2" departPos="7.10" departSpeed="0.00" departDelay="0.00" arrival="228.00" arrivalLane="53i_1" arrivalPos="402.80" arrivalSpeed="19.19" duration="102.00" routeLength="1012.90" waitingTime="6.00" waitingCount="1" stopTime="0.00" timeLoss="49.32" rerouteNo="1" devices="tripinfo_flow_bus_11.1 routing_flow_bus_11.1" vType="bus" speedFactor="1.00" vaporized=""/>
    <tripinfo id="flow_bus_8.1" depart="126.00" departLane="53o_2" departPos="7.10" departSpeed="0.00" departDelay="0.00" arrival="229.00" arrivalLane="54i_1" arrivalPos="402.80" arrivalSpeed="19.36" duration="103.00" routeLength="1012.90" waitingTime="4.00" waitingCount="1" stopTime="0.00" timeLoss="50.15" rerouteNo="1" devices="tripinfo_flow_bus_8.1 routing_flow_bus_8.1" vType="bus" speedFactor="1.00" vaporized=""/>
    <tripinfo id="flow_car_11.1" depart="104.00" departLane="54o_2" departPos="5.10" departSpeed="0.00" departDelay="0.00" arrival="230.00" arrivalLane="53i_0" arrivalPos="402.80" arrivalSpeed="16.42" duration="126.00" routeLength="1014.90" waitingTime="24.00" waitingCount="1" stopTime="0.00" timeLoss="64.87" rerouteNo="1" devices="tripinfo_flow_car_11.1 routing_flow_car_11.1" vType="car" speedFactor="1.04" vaporized=""/>
    <tripinfo id="flow_car_7.2" depart="152.00" departLane="53o_1" departPos="5.10" departSpeed="0.00" departDelay="0.00" arrival="238.00" arrivalLane="52i_0" arrivalPos="402.80" arrivalSpeed="16.45" duration="86.00" routeLength="996.73" waitingTime="0.00" waitingCount="0" stopTime="0.00" timeLoss="25.51" rerouteNo="1" devices="tripinfo_flow_car_7.2 routing_flow_car_7.2" vType="car" speedFactor="1.02" vaporized=""/>
    <tripinfo id="flow_car_8.2" depart="154.00" departLane="53o_2" departPos="5.10" departSpeed="0.00" departDelay="0.00" arrival="240.00" arrivalLane="54i_0" arrivalPos="402.80" arrivalSpeed="16.58" duration="86.00" routeLength="1014.90" waitingTime="0.00" waitingCount="0" stopTime="0.00" timeLoss="24.43" rerouteNo="1" devices="tripinfo_flow_car_8.2 routing_flow_car_8.2" vType="car" speedFactor="0.91" vaporized=""/>
    <tripinfo id="flow_car_11.2" depart="154.00" departLane="54o_2" departPos="5.10" departSpeed="0.00" departDelay="0.00" arrival="241.00" arrivalLane="53i_0" arrivalPos="402.80" arrivalSpeed="16.29" duration="87.00" routeLength="1014.90" waitingTime="0.00" waitingCount="0" stopTime="0.00" timeLoss="25.75" rerouteNo="1" devices="tripinfo_flow_car_11.2 routing_flow_car_11.2" vType="car" speedFactor="0.91" vaporized=""/>
    <tripinfo id="flow_car_9.2" depart="150.00" departLane="54o_0" departPos="5.10" departSpeed="0.00" departDelay="0.00" arrival="242.00" arrivalLane="51i_0" arrivalPos="402.80" arrivalSpeed="16.44" duration="92.00" routeLength="996.73" waitingTime="0.00" waitingCount="0" stopTime="0.00" timeLoss="30.91" rerouteNo="1" devices="tripinfo_flow_car_9.2 routing_flow_car_9.2" vType="car" speedFactor="0.97" vaporized=""/>
    <tripinfo id="flow_car_10.1" depart="102.00" departLane="54o_1" departPos="5.10" departSpeed="0.00" departDelay="0.00" arrival="253.00" arrivalLane="52i_0" arrivalPos="402.80" arrivalSpeed="16.47" duration="151.00" routeLength="1012.21" waitingTime="48.00" waitingCount="2" stopTime="0.00" timeLoss="88.61" rerouteNo="1" devices="tripinfo_flow_car_10.1 routing_flow_car_10.1" vType="car" speedFactor="0.90" vaporized=""/>
    <tripinfo id="flow_bus_10.1" depart="123.00" departLane="54o_1" departPos="7.10" departSpeed="0.00" departDelay="0.00" arrival="253.00" arrivalLane="52i_2" arrivalPos="402.80" arrivalSpeed="22.50" duration="130.00" routeLength="1010.21" waitingTime="30.00" waitingCount="2" stopTime="0.00" timeLoss="84.42" rerouteNo="1" devices="tripinfo_flow_bus_10.1 routing_flow_bus_10.1" vType="bus" speedFactor="1.17" vaporized=""/>
    <tripinfo id="flow_car_6.1" depart="100.00" departLane="53o_0" departPos="5.10" departSpeed="0.00" departDelay="0.00" arrival="255.00" arrivalLane="51i_0" arrivalPos="402.80" arrivalSpeed="16.51" duration="155.00" routeLength="1012.21" waitingTime="50.00" waitingCount="2" stopTime="0.00" timeLoss="92.97" rerouteNo="1" devices="tripinfo_flow_car_6.1 routing_flow_car_6.1" vType="car" speedFactor="0.99" vaporized=""/>
    <tripinfo id="flow_bus_6.1" depart="120.00" departLane="53o_0" departPos="7.10" departSpeed="0.00" departDelay="0.00" arrival="258.00" arrivalLane="51i_1" arrivalPos="402.80" arrivalSpeed="19.28" duration="138.00" routeLength="1010.21" waitingTime="34.00" waitingCount="2" stopTime="0.00" timeLoss="84.42" rerouteNo="1" devices="tripinfo_flow_bus_6.1 routing_flow_bus_6.1" vType="bus" speedFactor="1.00" vaporized=""/>
    <tripinfo id="flow_car_10.2" depart="152.00" departLane="54o_1" departPos="5.10" departSpeed="0.00" departDelay="0.00" arrival="259.00" arrivalLane="52i_1" arrivalPos="402.80" arrivalSpeed="16.39" duration="107.00" routeLength="1012.21" waitingTime="7.00" waitingCount="1" stopTime="0.00" timeLoss="44.68" rerouteNo="1" devices="tripinfo_flow_car_10.2 routing_flow_car_10.2" vType="car" speedFactor="0.99" vaporized=""/>
    <tripinfo id="flow_car_6.2" depart="150.00" departLane="53o_0" departPos="5.10" departSpeed="0.00" departDelay="0.00" arrival="262.00" arrivalLane="51i_1" arrivalPos="402.80" arrivalSpeed="16.35" duration="112.00" routeLength="1012.21" waitingTime="10.00" waitingCount="1" stopTime="0.00" timeLoss="49.89" rerouteNo="1" devices="tripinfo_flow_car_6.2 routing_flow_car_6.2" vType="car" speedFactor="1.02" vaporized=""/>
    <tripinfo id="flow_bus_5.1" depart="126.00" departLane="52o_2" departPos="7.10" departSpeed="0.00" departDelay="0.00" arrival="270.00" arrivalLane="54i_0" arrivalPos="402.80" arrivalSpeed="20.99" duration="144.00" routeLength="994.73" waitingTime="47.00" waitingCount="1" stopTime="0.00" timeLoss="96.10" rerouteNo="1" devices="tripinfo_flow_bus_5.1 routing_flow_bus_5.1" vType="bus" speedFactor="1.10" vaporized=""/>
    <tripinfo id="flow_car_1.2" depart="152.00" departLane="51o_1" departPos="5.10" departSpeed="0.00" departDelay="0.00" arrival="272.00" arrivalLane="53i_0" arrivalPos="402.80" arrivalSpeed="16.36" duration="120.00" routeLength="996.73" waitingTime="22.00" waitingCount="1" stopTime="0.00" timeLoss="59.55" rerouteNo="1" devices="tripinfo_flow_car_1.2 routing_flow_car_1.2" vType="car" speedFactor="1.08" vaporized=""/>
    <tripinfo id="flow_bus_0.2" depart="185.00" departLane="51o_0" departPos="7.10" departSpeed="0.00" departDelay="0.00" arrival="272.00" arrivalLane="52i_1" arrivalPos="402.80" arrivalSpeed="19.98" duration="87.00" routeLength="1012.90" waitingTime="0.00" waitingCount="0" stopTime="0.00" timeLoss="36.90" rerouteNo="1" devices="tripinfo_flow_bus_0.2 routing_flow_bus_0.2" vType="bus" speedFactor="1.04" vaporized=""/>
    <tripinfo id="flow_bus_6.2" depart="185.00" departLane="53o_0" departPos="7.10" departSpeed="0.00" departDelay="0.00" arrival="274.00" arrivalLane="51i_2" arrivalPos="402.80" arrivalSpeed="19.87" duration="89.00" routeLength="1005.18" waitingTime="0.00" waitingCount="0" stopTime="0.00" timeLoss="35.32" rerouteNo="1" devices="tripinfo_flow_bus_6.2 routing_flow_bus_6.2" vType="bus" speedFactor="1.02" vaporized=""/>
    <tripinfo id="flow_car_0.2" depart="150.00" departLane="51o_0" departPos="5.10" departSpeed="0.00" departDelay="0.00" arrival="275.00" arrivalLane="52i_0" arrivalPos="402.80" arrivalSpeed="16.64" duration="125.00" routeLength="1014.90" waitingTime="26.00" waitingCount="1" stopTime="0.00" timeLoss="64.01" rerouteNo="1" devices="tripinfo_flow_car_0.2 routing_flow_car_0.2" vType="car" speedFactor="0.90" vaporized=""/>
    <tripinfo id="flow_car_5.2" depart="154.00" departLane="52o_2" departPos="5.10" departSpeed="0.00" departDelay="0.00" arrival="277.00" arrivalLane="54i_0" arrivalPos="402.80" arrivalSpeed="16.65" duration="123.00" routeLength="996.73" waitingTime="22.00" waitingCount="1" stopTime="0.00" timeLoss="61.95" rerouteNo="1" devices="tripinfo_flow_car_5.2 routing_flow_car_5.2" vType="car" speedFactor="0.88" vaporized=""/>
    <tripinfo id="flow_bus_3.2" depart="185.00" departLane="52o_0" departPos="7.10" departSpeed="0.00" departDelay="0.00" arrival="277.00" arrivalLane="51i_0" arrivalPos="402.80" arrivalSpeed="19.75" duration="92.00" routeLength="1012.90" waitingTime="0.00" waitingCount="0" stopTime="0.00" timeLoss="40.07" rerouteNo="1" devices="tripinfo_flow_bus_3.2 routing_flow_bus_3.2" vType="bus" speedFactor="1.02" vaporized=""/>
    <tripinfo id="flow_bus_1.2" depart="188.00" departLane="51o_1" departPos="7.10" departSpeed="0.00" departDelay="0.00" arrival="279.00" arrivalLane="53i_0" arrivalPos="402.80" arrivalSpeed="18.17" duration="91.00" routeLength="989.15" waitingTime="0.00" waitingCount="0" stopTime="0.00" timeLoss="34.38" rerouteNo="1" devices="tripinfo_flow_bus_1.2 routing_flow_bus_1.2" vType="bus" speedFactor="0.94" vaporized=""/>
    <tripinfo id="flow_bus_5.2" depart="191.00" departLane="52o_2" departPos="7.10" departSpeed="0.00" departDelay="0.00" arrival="282.00" arrivalLane="54i_0" arrivalPos="402.80" arrivalSpeed="18.73" duration="91.00" routeLength="989.15" waitingTime="0.00" waitingCount="0" stopTime="0.00" timeLoss="35.70" rerouteNo="1" devices="tripinfo_flow_bus_5.2 routing_flow_bus_5.2" vType="bus" speedFactor="0.98" vaporized=""/>
    <tripinfo id="flow_car_3.2" depart="150.00" departLane="52o_0" departPos="5.10" departSpeed="0.00" departDelay="0.00" arrival="284.00" arrivalLane="51i_0" arrivalPos="402.80" arrivalSpeed="16.28" duration="134.00" routeLength="1014.90" waitingTime="24.00" waitingCount="2" stopTime="0.00" timeLoss="72.97" rerouteNo="1" devices="tripinfo_flow_car_3.2 routing_flow_car_3.2" vType="car" speedFactor="1.14" vaporized=""/>
    <tripinfo id="flow_car_3.3" depart="200.00" departLane="52o_0" departPos="5.10" departSpeed="0.00" departDelay="0.00" arrival="286.00" arrivalLane="51i_0" arrivalPos="402.80" arrivalSpeed="16.41" duration="86.00" routeLength="1014.90" waitingTime="0.00" waitingCount="0" stopTime="0.00" timeLoss="24.64" rerouteNo="1" devices="tripinfo_flow_car_3.3 routing_flow_car_3.3" vType="car" speedFactor="1.00" vaporized=""/>
    <tripinfo id="flow_car_4.1" depart="102.00" departLane="52o_1" departPos="5.10" departSpeed="0.00" departDelay="0.00" arrival="287.00" arrivalLane="53i_0" arrivalPos="402.80" arrivalSpeed="16.62" duration="185.00" routeLength="1012.21" waitingTime="67.00" waitingCount="4" stopTime="0.00" timeLoss="123.42" rerouteNo="1" devices="tripinfo_flow_car_4.1 routing_flow_car_4.1" vType="car" speedFactor="1.18" vaporized=""/>
    <tripinfo id="flow_car_0.3" depart="200.00" departLane="51o_0" departPos="5.10" departSpeed="0.00" departDelay="0.00" arrival="289.00" arrivalLane="52i_0" arrivalPos="402.80" arrivalSpeed="16.65" duration="89.00" routeLength="1014.90" waitingTime="0.00" waitingCount="0" stopTime="0.00" timeLoss="27.70" rerouteNo="1" devices="tripinfo_flow_car_0.3 routing_flow_car_0.3" vType="car" speedFactor="1.03" vaporized=""/>
    <tripinfo id="flow_car_1.3" depart="202.00" departLane="51o_1" departPos="5.10" departSpeed="0.00" departDelay="0.00" arrival="290.00" arrivalLane="53i_0" arrivalPos="402.80" arrivalSpeed="16.43" duration="88.00" routeLength="991.15" waitingTime="0.00" waitingCount="0" stopTime="0.00" timeLoss="26.14" rerouteNo="1" devices="tripinfo_flow_car_1.3 routing_flow_car_1.3" vType="car" speedFactor="1.15" vaporized=""/>
    <tripinfo id="flow_car_5.3" depart="204.00" departLane="52o_2" departPos="5.10" departSpeed="0.00" departDelay="0.00" arrival="295.00" arrivalLane="54i_0" arrivalPos="402.80" arrivalSpeed="16.49" duration="91.00" routeLength="991.15" waitingTime="0.00" waitingCount="0" stopTime="0.00" timeLoss="28.81" rerouteNo="1" devices="tripinfo_flow_car_5.3 routing_flow_car_5.3" vType="car" speedFactor="1.02" vaporized=""/>
    <tripinfo id="flow_car_4.2" depart="152.00" departLane="52o_1" departPos="5.10" departSpeed="0.00" departDelay="0.00" arrival="298.00" arrivalLane="53i_1" arrivalPos="402.80" arrivalSpeed="16.49" duration="146.00" routeLength="1012.21" waitingTime="36.00" waitingCount="3" stopTime="0.00" timeLoss="84.26" rerouteNo="1" devices="tripinfo_flow_car_4.2 routing_flow_car_4.2" vType="car" speedFactor="1.12" vaporized=""/>
    <tripinfo id="flow_bus_4.1" depart="123.00" departLane="52o_1" departPos="7.10" departSpeed="0.00" departDelay="0.00" arrival="299.00" arrivalLane="53i_0" arrivalPos="402.80" arrivalSpeed="16.33" duration="176.00" routeLength="1010.21" waitingTime="57.00" waitingCount="3" stopTime="0.00" timeLoss="113.09" rerouteNo="1" devices="tripinfo_flow_bus_4.1 routing_flow_bus_4.1" vType="bus" speedFactor="0.85" vaporized=""/>
    <tripinfo id="flow_bus_2.1" depart="126.00" departLane="51o_2" departPos="7.10" departSpeed="0.00" departDelay="0.00" arrival="299.00" arrivalLane="54i_2" arrivalPos="402.80" arrivalSpeed="19.49" duration="173.00" routeLength="1010.21" waitingTime="70.00" waitingCount="3" stopTime="0.00" timeLoss="120.04" rerouteNo="1" devices="tripinfo_flow_bus_2.1 routing_flow_bus_2.1" vType="bus" speedFactor="1.02" vaporized=""/>
    <tripinfo id="flow_car_2.1" depart="104.00" departLane="51o_2" departPos="5.10" departSpeed="0.00" departDelay="0.00" arrival="300.00" arrivalLane="54i_0" arrivalPos="402.80" arrivalSpeed="16.43" duration="196.00" routeLength="1012.21" waitingTime="81.00" waitingCount="4" stopTime="0.00" timeLoss="134.40" rerouteNo="1" devices="tripinfo_flow_car_2.1 routing_flow_car_2.1" vType="car" speedFactor="1.03" vaporized=""/>