<?xml version="1.0" encoding="UTF-8"?>

<!-- generated on 2022-09-09 16:06:08 by Eclipse SUMO GUI Version 1.14.1
<configuration xmlns:xsi="http://www.w3.org/2001/XMLSchema-instance" xsi:noNamespaceSchemaLocation="http://sumo.dlr.de/xsd/sumoConfiguration.xsd">

    <input>
        <net-file value="traci_tls/data/cross.net.xml"/>
        <route-files value="traci_tls/data/cross.rou.xml"/>
        <additional-files value="traci_tls/data/cross.det.xml"/>
    </input>

    <output>
        <tripinfo-output value="tripinfo.xml"/>
    </output>

    <time>
        <begin value="0"/>
    </time>

    <report>
        <verbose value="true"/>
        <no-step-log value="true"/>
    </report>

    <traci_server>
        <remote-port value="58911"/>
    </traci_server>

</configuration>
-->

<tripinfos xmlns:xsi="http://www.w3.org/2001/XMLSchema-instance" xsi:noNamespaceSchemaLocation="http://sumo.dlr.de/xsd/tripinfo_file.xsd">
    <tripinfo id="left_0" depart="0.00" departLane="51o_0" departPos="5.10" departSpeed="0.00" departDelay="0.00" arrival="87.00" arrivalLane="54i_1" arrivalPos="402.80" arrivalSpeed="16.31" duration="87.00" routeLength="1012.21" waitingTime="0.00" waitingCount="0" stopTime="0.00" timeLoss="13.01" rerouteNo="0" devices="tripinfo_left_0" vType="typeWE" speedFactor="1.06" vaporized=""/>
    <tripinfo id="right_2" depart="5.00" departLane="51o_0" departPos="5.10" departSpeed="0.00" departDelay="2.00" arrival="94.00" arrivalLane="52i_0" arrivalPos="402.80" arrivalSpeed="16.58" duration="89.00" routeLength="1015.07" waitingTime="0.00" waitingCount="0" stopTime="0.00" timeLoss="13.20" rerouteNo="0" devices="tripinfo_right_2" vType="typeWE" speedFactor="1.01" vaporized=""/>
    <tripinfo id="left_4" depart="6.00" departLane="52o_0" departPos="5.10" departSpeed="0.00" departDelay="0.00" arrival="94.00" arrivalLane="51i_0" arrivalPos="402.80" arrivalSpeed="16.54" duration="88.00" routeLength="1015.07" waitingTime="0.00" waitingCount="0" stopTime="0.00" timeLoss="13.16" rerouteNo="0" devices="tripinfo_left_4" vType="typeWE" speedFactor="1.03" vaporized=""/>
    <tripinfo id="right_3" depart="10.00" departLane="51o_0" departPos="5.10" departSpeed="0.00" departDelay="6.00" arrival="95.00" arrivalLane="52i_0" arrivalPos="402.80" arrivalSpeed="16.29" duration="85.00" routeLength="1015.07" waitingTime="0.00" waitingCount="0" stopTime="0.00" timeLoss="13.10" rerouteNo="0" devices="tripinfo_right_3" vType="typeWE" speedFactor="1.08" vaporized=""/>
    <tripinfo id="left_6" depart="22.00" departLane="52o_0" departPos="5.10" departSpeed="0.00" departDelay="0.00" arrival="109.00" arrivalLane="51i_0" arrivalPos="402.80" arrivalSpeed="16.40" duration="87.00" routeLength="1015.07" waitingTime="0.00" waitingCount="0" stopTime="0.00" timeLoss="13.46" rerouteNo="0" devices="tripinfo_left_6" vType="typeWE" speedFactor="1.05" vaporized=""/>
    <tripinfo id="left_1" depart="2.00" departLane="54o_0" departPos="7.10" departSpeed="0.00" departDelay="0.00" arrival="116.00" arrivalLane="E6_0" arrivalPos="83.20" arrivalSpeed="11.63" duration="114.00" routeLength="840.13" waitingTime="1.00" waitingCount="1" stopTime="0.00" timeLoss="37.99" rerouteNo="0" devices="tripinfo_left_1" vType="typeNS" speedFactor="0.94" vaporized=""/>
    <tripinfo id="left_7" depart="31.00" departLane="53o_0" departPos="7.10" departSpeed="0.00" departDelay="0.00" arrival="144.00" arrivalLane="-E3_0" arrivalPos="83.20" arrivalSpeed="11.18" duration="113.00" routeLength="840.13" waitingTime="0.00" waitingCount="0" stopTime="0.00" timeLoss="32.16" rerouteNo="0" devices="tripinfo_left_7" vType="typeNS" speedFactor="0.89" vaporized=""/>
    <tripinfo id="left_8" depart="33.00" departLane="52o_0" departPos="5.10" departSpeed="0.00" departDelay="0.00" arrival="180.00" arrivalLane="51i_0" arrivalPos="402.80" arrivalSpeed="16.58" duration="147.00" routeLength="1015.07" waitingTime="44.00" waitingCount="1" stopTime="0.00" timeLoss="68.74" rerouteNo="0" devices="tripinfo_left_8" vType="typeWE" speedFactor="0.94" vaporized=""/>
    <tripinfo id="right_10" depart="42.00" departLane="51o_0" departPos="5.10" departSpeed="0.00" departDelay="0.00" arrival="182.00" arrivalLane="52i_1" arrivalPos="402.80" arrivalSpeed="16.34" duration="140.00" routeLength="1015.07" waitingTime="42.00" waitingCount="1" stopTime="0.00" timeLoss="68.05" rerouteNo="0" devices="tripinfo_right_10" vType="typeWE" speedFactor="1.09" vaporized=""/>
    <tripinfo id="right_5" depart="15.00" departLane="51o_0" departPos="5.10" departSpeed="0.00" departDelay="6.00" arrival="183.00" arrivalLane="52i_0" arrivalPos="402.80" arrivalSpeed="15.98" duration="168.00" routeLength="1015.07" waitingTime="58.00" waitingCount="1" stopTime="0.00" timeLoss="81.60" rerouteNo="0" devices="tripinfo_right_5" vType="typeWE" speedFactor="0.83" vaporized=""/>
    <tripinfo id="left_9" depart="41.00" departLane="52o_0" departPos="5.10" departSpeed="0.00" departDelay="0.00" arrival="184.00" arrivalLane="51i_0" arrivalPos="402.80" arrivalSpeed="16.26" duration="143.00" routeLength="1015.07" waitingTime="34.00" waitingCount="1" stopTime="0.00" timeLoss="59.20" rerouteNo="0" devices="tripinfo_left_9" vType="typeWE" speedFactor="0.86" vaporized=""/>
    <tripinfo id="right_13" depart="58.00" departLane="51o_0" departPos="5.10" departSpeed="0.00" departDelay="3.00" arrival="184.00" arrivalLane="52i_1" arrivalPos="402.80" arrivalSpeed="16.53" duration="126.00" routeLength="1015.07" waitingTime="26.00" waitingCount="1" stopTime="0.00" timeLoss="55.27" rerouteNo="0" devices="tripinfo_right_13" vType="typeWE" speedFactor="1.12" vaporized=""/>
    <tripinfo id="left_11" depart="46.00" departLane="52o_0" departPos="5.10" departSpeed="0.00" departDelay="1.00" arrival="185.00" arrivalLane="51i_0" arrivalPos="402.80" arrivalSpeed="16.55" duration="139.00" routeLength="1015.07" waitingTime="34.00" waitingCount="1" stopTime="0.00" timeLoss="64.61" rerouteNo="0" devices="tripinfo_left_11" vType="typeWE" speedFactor="1.03" vaporized=""/>
    <tripinfo id="right_14" depart="63.00" departLane="51o_0" departPos="5.10" departSpeed="0.00" departDelay="2.00" arrival="187.00" arrivalLane="52i_0" arrivalPos="402.80" arrivalSpeed="16.53" duration="124.00" routeLength="1015.07" waitingTime="21.00" waitingCount="1" stopTime="0.00" timeLoss="47.48" rerouteNo="0" devices="tripinfo_right_14" vType="typeWE" speedFactor="0.99" vaporized=""/>
    <tripinfo id="left_17" depart="85.00" departLane="52o_0" departPos="5.10" departSpeed="0.00" departDelay="0.00" arrival="187.00" arrivalLane="51i_0" arrivalPos="402.80" arrivalSpeed="16.38" duration="102.00" routeLength="1015.07" waitingTime="0.00" waitingCount="0" stopTime="0.00" timeLoss="23.20" rerouteNo="0" devices="tripinfo_left_17" vType="typeWE" speedFactor="0.94" vaporized=""/>
    <tripinfo id="left_21" depart="99.00" departLane="52o_0" departPos="5.10" departSpeed="0.00" departDelay="0.00" arrival="188.00" arrivalLane="51i_1" arrivalPos="402.80" arrivalSpeed="16.36" duration="89.00" routeLength="1015.07" waitingTime="0.00" waitingCount="0" stopTime="0.00" timeLoss="13.69" rerouteNo="0" devices="tripinfo_left_21" vType="typeWE" speedFactor="1.01" vaporized=""/>
    <tripinfo id="right_15" depart="69.00" departLane="51o_0" departPos="5.10" departSpeed="0.00" departDelay="0.00" arrival="189.00" arrivalLane="52i_0" arrivalPos="402.80" arrivalSpeed="16.57" duration="120.00" routeLength="1015.07" waitingTime="16.00" waitingCount="1" stopTime="0.00" timeLoss="40.98" rerouteNo="0" devices="tripinfo_right_15" vType="typeWE" speedFactor="0.93" vaporized=""/>
    <tripinfo id="right_20" depart="101.00" departLane="51o_0" departPos="5.10" departSpeed="0.00" departDelay="2.00" arrival="190.00" arrivalLane="52i_1" arrivalPos="402.80" arrivalSpeed="16.41" duration="89.00" routeLength="1015.07" waitingTime="0.00" waitingCount="0" stopTime="0.00" timeLoss="14.44" rerouteNo="0" devices="tripinfo_right_20" vType="typeWE" speedFactor="1.02" vaporized=""/>
    <tripinfo id="down_19" depart="96.00" departLane="51o_0" departPos="7.10" departSpeed="0.00" departDelay="0.00" arrival="197.00" arrivalLane="54i_2" arrivalPos="402.80" arrivalSpeed="22.22" duration="101.00" routeLength="1010.21" waitingTime="9.00" waitingCount="1" stopTime="0.00" timeLoss="38.49" rerouteNo="0" devices="tripinfo_down_19" vType="typeNS" speedFactor="1.16" vaporized=""/>
    <tripinfo id="left_12" depart="53.00" departLane="51o_0" departPos="5.10" departSpeed="0.00" departDelay="0.00" arrival="198.00" arrivalLane="54i_0" arrivalPos="402.80" arrivalSpeed="16.33" duration="145.00" routeLength="1012.21" waitingTime="41.00" waitingCount="2" stopTime="0.00" timeLoss="70.95" rerouteNo="0" devices="tripinfo_left_12" vType="typeWE" speedFactor="1.05" vaporized=""/>
    <tripinfo id="right_16" depart="84.00" departLane="53o_0" departPos="7.10" departSpeed="0.00" departDelay="0.00" arrival="207.00" arrivalLane="-E3_0" arrivalPos="83.20" arrivalSpeed="11.66" duration="123.00" routeLength="840.13" waitingTime="7.00" waitingCount="1" stopTime="0.00" timeLoss="41.45" rerouteNo="0" devices="tripinfo_right_16" vType="typeNS" speedFactor="0.88" vaporized=""/>
    <tripinfo id="right_22" depart="108.00" departLane="54o_0" departPos="7.10" departSpeed="0.00" departDelay="0.00" arrival="215.00" arrivalLane="E6_0" arrivalPos="83.20" arrivalSpeed="11.87" duration="107.00" routeLength="840.13" waitingTime="0.00" waitingCount="0" stopTime="0.00" timeLoss="34.58" rerouteNo="0" devices="tripinfo_right_22" vType="typeNS" speedFactor="0.97" vaporized=""/>
    <tripinfo id="down_18" depart="89.00" departLane="54o_0" departPos="7.10" departSpeed="0.00" departDelay="0.00" arrival="224.00" arrivalLane="53i_0" arrivalPos="402.80" arrivalSpeed="17.85" duration="135.00" routeLength="1013.07" waitingTime="34.00" waitingCount="1" stopTime="0.00" timeLoss="59.00" rerouteNo="0" devices="tripinfo_down_18" vType="typeNS" speedFactor="0.94" vaporized=""/>
    <tripinfo id="down_24" depart="122.00" departLane="54o_0" departPos="7.10" departSpeed="0.00" departDelay="0.00" arrival="230.00" arrivalLane="53i_0" arrivalPos="402.80" arrivalSpeed="15.68" duration="108.00" routeLength="1013.07" waitingTime="0.00" waitingCount="0" stopTime="0.00" timeLoss="21.08" rerouteNo="0" devices="tripinfo_down_24" vType="typeNS" speedFactor="0.83" vaporized=""/>
    <tripinfo id="left_26" depart="131.00" departLane="52o_0" departPos="5.10" departSpeed="0.00" departDelay="0.00" arrival="270.00" arrivalLane="51i_0" arrivalPos="402.80" arrivalSpeed="16.34" duration="139.00" routeLength="1015.07" waitingTime="36.00" waitingCount="1" stopTime="0.00" timeLoss="58.81" rerouteNo="0" devices="tripinfo_left_26" vType="typeWE" speedFactor="0.92" vaporized=""/>
    <tripinfo id="right_23" depart="114.00" departLane="51o_0" departPos="5.10" departSpeed="0.00" departDelay="0.00" arrival="272.00" arrivalLane="52i_0" arrivalPos="402.80" arrivalSpeed="16.36" duration="158.00" routeLength="1015.07" waitingTime="51.00" waitingCount="1" stopTime="0.00" timeLoss="76.13" rerouteNo="0" devices="tripinfo_right_23" vType="typeWE" speedFactor="0.89" vaporized=""/>
    <tripinfo id="left_27" depart="136.00" departLane="52o_0" departPos="5.10" departSpeed="0.00" departDelay="1.00" arrival="273.00" arrivalLane="51i_0" arrivalPos="402.80" arrivalSpeed="16.29" duration="137.00" routeLength="1015.07" waitingTime="33.00" waitingCount="1" stopTime="0.00" timeLoss="58.79" rerouteNo="0" devices="tripinfo_left_27" vType="typeWE" speedFactor="0.95" vaporized=""/>
    <tripinfo id="right_25" depart="125.00" departLane="51o_0" departPos="5.10" departSpeed="0.00" departDelay="0.00" arrival="274.00" arrivalLane="52i_0" arrivalPos="402.80" arrivalSpeed="16.30" duration="149.00" routeLength="1015.07" waitingTime="41.00" waitingCount="1" stopTime="0.00" timeLoss="66.51" rerouteNo="0" devices="tripinfo_right_25" vType="typeWE" speedFactor="0.87" vaporized=""/>
    <tripinfo id="left_28" depart="141.00" departLane="52o_0" departPos="5.10" departSpeed="0.00" departDelay="3.00" arrival="274.00" arrivalLane="51i_1" arrivalPos="402.80" arrivalSpeed="16.43" duration="133.00" routeLength="1015.07" waitingTime="32.00" waitingCount="1" stopTime="0.00" timeLoss="63.05" rerouteNo="0" devices="tripinfo_left_28" vType="typeWE" speedFactor="1.13" vaporized=""/>
    <tripinfo id="right_30" depart="145.00" departLane="51o_0" departPos="5.10" departSpeed="0.00" departDelay="0.00" arrival="274.00" arrivalLane="52i_1" arrivalPos="402.80" arrivalSpeed="16.45" duration="129.00" routeLength="1015.07" waitingTime="33.00" waitingCount="1" stopTime="0.00" timeLoss="60.08" rerouteNo="0" devices="tripinfo_right_30" vType="typeWE" speedFactor="1.18" vaporized=""/>
    <tripinfo id="right_35" depart="167.00" departLane="51o_0" departPos="5.10" departSpeed="0.00" departDelay="0.00" arrival="277.00" arrivalLane="52i_0" arrivalPos="402.80" arrivalSpeed="16.34" duration="110.00" routeLength="1015.07" waitingTime="8.00" waitingCount="1" stopTime="0.00" timeLoss="34.65" rerouteNo="0" devices="tripinfo_right_35" vType="typeWE" speedFactor="1.02" vaporized=""/>
    <tripinfo id="left_29" depart="146.00" departLane="52o_0" departPos="5.10" departSpeed="0.00" departDelay="4.00" arrival="278.00" arrivalLane="51i_0" arrivalPos="402.80" arrivalSpeed="16.40" duration="132.00" routeLength="1015.07" waitingTime="26.00" waitingCount="1" stopTime="0.00" timeLoss="52.28" rerouteNo="0" devices="tripinfo_left_29" vType="typeWE" speedFactor="0.93" vaporized=""/>
    <tripinfo id="left_31" depart="153.00" departLane="52o_0" departPos="5.10" departSpeed="0.00" departDelay="0.00" arrival="278.00" arrivalLane="51i_1" arrivalPos="402.80" arrivalSpeed="16.27" duration="125.00" routeLength="1015.07" waitingTime="25.00" waitingCount="1" stopTime="0.00" timeLoss="54.91" rerouteNo="0" devices="tripinfo_left_31" vType="typeWE" speedFactor="1.15" vaporized=""/>
    <tripinfo id="right_36" depart="172.00" departLane="51o_0" departPos="5.10" departSpeed="0.00" departDelay="4.00" arrival="279.00" arrivalLane="52i_0" arrivalPos="402.80" arrivalSpeed="16.36" duration="107.00" routeLength="1015.07" waitingTime="3.00" waitingCount="1" stopTime="0.00" timeLoss="29.95" rerouteNo="0" devices="tripinfo_right_36" vType="typeWE" speedFactor="0.97" vaporized=""/>
    <tripinfo id="left_32" depart="158.00" departLane="52o_0" departPos="5.10" departSpeed="0.00" departDelay="2.00" arrival="281.00" arrivalLane="51i_0" arrivalPos="402.80" arrivalSpeed="16.57" duration="123.00" routeLength="1015.07" waitingTime="20.00" waitingCount="1" stopTime="0.00" timeLoss="47.01" rerouteNo="0" devices="tripinfo_left_32" vType="typeWE" speedFactor="1.01" vaporized=""/>
    <tripinfo id="right_40" depart="177.00" departLane="51o_0" departPos="5.10" departSpeed="0.00" departDelay="1.00" arrival="281.00" arrivalLane="52i_0" arrivalPos="402.80" arrivalSpeed="16.61" duration="104.00" routeLength="1015.07" waitingTime="2.00" waitingCount="1" stopTime="0.00" timeLoss="29.20" rerouteNo="0" devices="tripinfo_right_40" vType="typeWE" speedFactor="1.03" vaporized=""/>
    <tripinfo id="left_33" depart="163.00" departLane="52o_0" departPos="5.10" departSpeed="0.00" departDelay="3.00" arrival="282.00" arrivalLane="51i_1" arrivalPos="402.80" arrivalSpeed="16.29" duration="119.00" routeLength="1015.07" waitingTime="19.00" waitingCount="1" stopTime="0.00" timeLoss="49.66" rerouteNo="0" devices="tripinfo_left_33" vType="typeWE" speedFactor="1.17" vaporized=""/>
    <tripinfo id="right_41" depart="182.00" departLane="51o_0" departPos="5.10" departSpeed="0.00" departDelay="1.00" arrival="283.00" arrivalLane="52i_0" arrivalPos="402.80" arrivalSpeed="16.62" duration="101.00" routeLength="1015.07" waitingTime="0.00" waitingCount="0" stopTime="0.00" timeLoss="23.19" rerouteNo="0" devices="tripinfo_right_41" vType="typeWE" speedFactor="0.96" vaporized=""/>
    <tripinfo id="left_34" depart="169.00" departLane="52o_0" departPos="5.10" departSpeed="0.00" departDelay="5.00" arrival="284.00" arrivalLane="51i_0" arrivalPos="402.80" arrivalSpeed="16.56" duration="115.00" routeLength="1015.07" waitingTime="13.00" waitingCount="1" stopTime="0.00" timeLoss="39.25" rerouteNo="0" devices="tripinfo_left_34" vType="typeWE" speedFactor="0.99" vaporized=""/>
    <tripinfo id="right_42" depart="187.00" departLane="51o_0" departPos="5.10" departSpeed="0.00" departDelay="4.00" arrival="284.00" arrivalLane="52i_1" arrivalPos="402.80" arrivalSpeed="16.37" duration="97.00" routeLength="1015.07" waitingTime="0.00" waitingCount="0" stopTime="0.00" timeLoss="24.98" rerouteNo="0" devices="tripinfo_right_42" vType="typeWE" speedFactor="1.09" vaporized=""/>
    <tripinfo id="left_37" depart="174.00" departLane="52o_0" departPos="5.10" departSpeed="0.00" departDelay="5.00" arrival="285.00" arrivalLane="51i_1" arrivalPos="402.80" arrivalSpeed="16.64" duration="111.00" routeLength="1015.07" waitingTime="12.00" waitingCount="1" stopTime="0.00" timeLoss="41.99" rerouteNo="0" devices="tripinfo_left_37" vType="typeWE" speedFactor="1.18" vaporized=""/>
    <tripinfo id="left_38" depart="179.00" departLane="52o_0" departPos="5.10" departSpeed="0.00" departDelay="7.00" arrival="287.00" arrivalLane="51i_0" arrivalPos="402.80" arrivalSpeed="16.31" duration="108.00" routeLength="1015.07" waitingTime="9.00" waitingCount="1" stopTime="0.00" timeLoss="36.55" rerouteNo="0" devices="tripinfo_left_38" vType="typeWE" speedFactor="1.10" vaporized=""/>
    <tripinfo id="right_46" depart="200.00" departLane="51o_0" departPos="5.10" departSpeed="0.00" departDelay="0.00" arrival="289.00" arrivalLane="52i_0" arrivalPos="402.80" arrivalSpeed="16.41" duration="89.00" routeLength="1015.07" waitingTime="0.00" waitingCount="0" stopTime="0.00" timeLoss="12.80" rerouteNo="0" devices="tripinfo_right_46" vType="typeWE" speedFactor="1.00" vaporized=""/>
    <tripinfo id="left_43" depart="194.00" departLane="52o_0" departPos="5.10" departSpeed="0.00" departDelay="0.00" arrival="290.00" arrivalLane="51i_0" arrivalPos="402.80" arrivalSpeed="16.35" duration="96.00" routeLength="1015.07" waitingTime="0.00" waitingCount="0" stopTime="0.00" timeLoss="21.71" rerouteNo="0" devices="tripinfo_left_43" vType="typeWE" speedFactor="1.04" vaporized=""/>
    <tripinfo id="down_39" depart="172.00" departLane="54o_0" departPos="7.10" departSpeed="0.00" departDelay="0.00" arrival="315.00" arrivalLane="53i_0" arrivalPos="402.80" arrivalSpeed="17.50" duration="143.00" routeLength="1013.07" waitingTime="39.00" waitingCount="1" stopTime="0.00" timeLoss="63.87" rerouteNo="0" devices="tripinfo_down_39" vType="typeNS" speedFactor="0.90" vaporized=""/>
    <tripinfo id="left_44" depart="199.00" departLane="52o_0" departPos="5.10" departSpeed="0.00" departDelay="3.00" arrival="359.00" arrivalLane="51i_0" arrivalPos="402.80" arrivalSpeed="16.28" duration="160.00" routeLength="1015.07" waitingTime="58.00" waitingCount="1" stopTime="0.00" timeLoss="86.54" rerouteNo="0" devices="tripinfo_left_44" vType="typeWE" speedFactor="1.04" vaporized=""/>
    <tripinfo id="right_48" depart="217.00" departLane="51o_0" departPos="5.10" departSpeed="0.00" departDelay="0.00" arrival="361.00" arrivalLane="52i_0" arrivalPos="402.80" arrivalSpeed="16.30" duration="144.00" routeLength="1015.07" waitingTime="38.00" waitingCount="1" stopTime="0.00" timeLoss="62.12" rerouteNo="0" devices="tripinfo_right_48" vType="typeWE" speedFactor="0.88" vaporized=""/>
    <tripinfo id="left_45" depart="204.00" departLane="52o_0" departPos="5.10" departSpeed="0.00" departDelay="5.00" arrival="362.00" arrivalLane="51i_0" arrivalPos="402.80" arrivalSpeed="16.57" duration="158.00" routeLength="1015.07" waitingTime="57.00" waitingCount="1" stopTime="0.00" timeLoss="86.42" rerouteNo="0" devices="tripinfo_left_45" vType="typeWE" speedFactor="1.09" vaporized=""/>
    <tripinfo id="right_50" depart="228.00" departLane="51o_0" departPos="5.10" departSpeed="0.00" departDelay="0.00" arrival="364.00" arrivalLane="52i_0" arrivalPos="402.80" arrivalSpeed="16.58" duration="136.00" routeLength="1015.07" waitingTime="26.00" waitingCount="1" stopTime="0.00" timeLoss="52.22" rerouteNo="0" devices="tripinfo_right_50" vType="typeWE" speedFactor="0.85" vaporized=""/>
    <tripinfo id="right_53" depart="240.00" departLane="51o_0" departPos="5.10" departSpeed="0.00" departDelay="0.00" arrival="365.00" arrivalLane="52i_1" arrivalPos="402.80" arrivalSpeed="16.34" duration="125.00" routeLength="1015.07" waitingTime="25.00" waitingCount="1" stopTime="0.00" timeLoss="52.66" rerouteNo="0" devices="tripinfo_right_53" vType="typeWE" speedFactor="1.10" vaporized=""/>
    <tripinfo id="left_47" depart="212.00" departLane="52o_0" departPos="5.10" departSpeed="0.00" departDelay="0.00" arrival="366.00" arrivalLane="51i_0" arrivalPos="402.80" arrivalSpeed="16.28" duration="154.00" routeLength="1015.07" waitingTime="47.00" waitingCount="1" stopTime="0.00" timeLoss="72.81" rerouteNo="0" devices="tripinfo_left_47" vType="typeWE" speedFactor="0.90" vaporized=""/>
    <tripinfo id="left_51" depart="234.00" departLane="52o_0" departPos="5.10" departSpeed="0.00" departDelay="0.00" arrival="368.00" arrivalLane="51i_1" arrivalPos="402.80" arrivalSpeed="16.51" duration="134.00" routeLength="1015.07" waitingTime="38.00" waitingCount="1" stopTime="0.00" timeLoss="64.56" rerouteNo="0" devices="tripinfo_left_51" vType="typeWE" speedFactor="1.17" vaporized=""/>
    <tripinfo id="left_49" depart="219.00" departLane="52o_0" departPos="5.10" departSpeed="0.00" departDelay="0.00" arrival="369.00" arrivalLane="51i_0" arrivalPos="402.80" arrivalSpeed="16.24" duration="150.00" routeLength="1015.07" waitingTime="40.00" waitingCount="1" stopTime="0.00" timeLoss="65.57" rerouteNo="0" devices="tripinfo_left_49" vType="typeWE" speedFactor="0.85" vaporized=""/>
    <tripinfo id="left_52" depart="239.00" departLane="52o_0" departPos="5.10" departSpeed="0.00" departDelay="1.00" arrival="370.00" arrivalLane="51i_0" arrivalPos="402.80" arrivalSpeed="16.34" duration="131.00" routeLength="1015.07" waitingTime="30.00" waitingCount="1" stopTime="0.00" timeLoss="56.31" rerouteNo="0" devices="tripinfo_left_52" vType="typeWE" speedFactor="1.02" vaporized=""/>
    <tripinfo id="left_54" depart="272.00" departLane="52o_0" departPos="5.10" departSpeed="0.00" departDelay="0.00" arrival="372.00" arrivalLane="51i_0" arrivalPos="402.80" arrivalSpeed="16.40" duration="100.00" routeLength="1015.07" waitingTime="0.00" waitingCount="0" stopTime="0.00" timeLoss="24.50" rerouteNo="0" devices="tripinfo_left_54" vType="typeWE" speedFactor="1.00" vaporized=""/>
    <tripinfo id="left_55" depart="277.00" departLane="52o_0" departPos="5.10" departSpeed="0.00" departDelay="2.00" arrival="375.00" arrivalLane="51i_0" arrivalPos="402.80" arrivalSpeed="16.38" duration="98.00" routeLength="1015.07" waitingTime="0.00" waitingCount="0" stopTime="0.00" timeLoss="21.49" rerouteNo="0" devices="tripinfo_left_55" vType="typeWE" speedFactor="1.00" vaporized=""/>
    <tripinfo id="right_57" depart="289.00" departLane="51o_0" departPos="5.10" departSpeed="0.00" departDelay="3.00" arrival="377.00" arrivalLane="52i_1" arrivalPos="402.80" arrivalSpeed="16.53" duration="88.00" routeLength="1015.07" waitingTime="0.00" waitingCount="0" stopTime="0.00" timeLoss="17.85" rerouteNo="0" devices="tripinfo_right_57" vType="typeWE" speedFactor="1.14" vaporized=""/>
    <tripinfo id="right_56" depart="284.00" departLane="51o_0" departPos="5.10" departSpeed="0.00" departDelay="0.00" arrival="378.00" arrivalLane="52i_0" arrivalPos="402.80" arrivalSpeed="16.38" duration="94.00" routeLength="1015.07" waitingTime="0.00" waitingCount="0" stopTime="0.00" timeLoss="12.62" rerouteNo="0" devices="tripinfo_right_56" vType="typeWE" speedFactor="0.90" vaporized=""/>
    <tripinfo id="right_59" depart="291.00" departLane="53o_0" departPos="7.10" departSpeed="0.00" departDelay="0.00" arrival="397.00" arrivalLane="-E3_0" arrivalPos="83.20" arrivalSpeed="11.97" duration="106.00" routeLength="840.13" waitingTime="0.00" waitingCount="0" stopTime="0.00" timeLoss="33.39" rerouteNo="0" devices="tripinfo_right_59" vType="typeNS" speedFactor="0.97" vaporized=""/>
    <tripinfo id="down_61" depart="318.00" departLane="54o_0" departPos="7.10" departSpeed="0.00" departDelay="0.00" arrival="399.00" arrivalLane="53i_0" arrivalPos="402.80" arrivalSpeed="21.61" duration="81.00" routeLength="1013.07" waitingTime="0.00" waitingCount="0" stopTime="0.00" timeLoss="16.34" rerouteNo="0" devices="tripinfo_down_61" vType="typeNS" speedFactor="1.12" vaporized=""/>
    <tripinfo id="down_63" depart="331.00" departLane="54o_0" departPos="7.10" departSpeed="0.00" departDelay="0.00" arrival="419.00" arrivalLane="53i_0" arrivalPos="402.80" arrivalSpeed="18.90" duration="88.00" routeLength="1013.07" waitingTime="0.00" waitingCount="0" stopTime="0.00" timeLoss="15.72" rerouteNo="0" devices="tripinfo_down_63" vType="typeNS" speedFactor="0.99" vaporized=""/>
</tripinfos>
